Variables = "x","y", "Velocity_x", "Velocity_y", "Velocity_whole value", "Pressure", "Absolute pressure", "Total pressure"
Zone i=42, j=42
 0.0000000e+000  0.0000000e+000  0.0000000e+000  0.0000000e+000  0.0000000e+000 -1.4329555e-002 -1.4329555e-002 -1.4329555e-002 
 6.0982401e-003  0.0000000e+000  0.0000000e+000  0.0000000e+000  0.0000000e+000 -1.4328048e-002 -1.4328048e-002 -1.4328048e-002 
 1.8721581e-002  0.0000000e+000  0.0000000e+000  0.0000000e+000  0.0000000e+000 -1.4324928e-002 -1.4324928e-002 -1.4324928e-002 
 3.2228529e-002  0.0000000e+000  0.0000000e+000  0.0000000e+000  0.0000000e+000 -1.4398661e-002 -1.4398661e-002 -1.4398661e-002 
 4.6680957e-002  0.0000000e+000  0.0000000e+000  0.0000000e+000  0.0000000e+000 -1.4556040e-002 -1.4556040e-002 -1.4556040e-002 
 6.2145084e-002  0.0000000e+000  0.0000000e+000  0.0000000e+000  0.0000000e+000 -1.4799121e-002 -1.4799121e-002 -1.4799121e-002 
 7.8691721e-002  0.0000000e+000  0.0000000e+000  0.0000000e+000  0.0000000e+000 -1.5098931e-002 -1.5098931e-002 -1.5098931e-002 
 9.6396603e-002  0.0000000e+000  0.0000000e+000  0.0000000e+000  0.0000000e+000 -1.5439275e-002 -1.5439275e-002 -1.5439275e-002 
 1.1534080e-001  0.0000000e+000  0.0000000e+000  0.0000000e+000  0.0000000e+000 -1.5799468e-002 -1.5799468e-002 -1.5799468e-002 
 1.3561110e-001  0.0000000e+000  0.0000000e+000  0.0000000e+000  0.0000000e+000 -1.6157033e-002 -1.6157033e-002 -1.6157033e-002 
 1.5730035e-001  0.0000000e+000  0.0000000e+000  0.0000000e+000  0.0000000e+000 -1.6488990e-002 -1.6488990e-002 -1.6488990e-002 
 1.8050785e-001  0.0000000e+000  0.0000000e+000  0.0000000e+000  0.0000000e+000 -1.6772166e-002 -1.6772166e-002 -1.6772166e-002 
 2.0533991e-001  0.0000000e+000  0.0000000e+000  0.0000000e+000  0.0000000e+000 -1.6983142e-002 -1.6983142e-002 -1.6983142e-002 
 2.3191020e-001  0.0000000e+000  0.0000000e+000  0.0000000e+000  0.0000000e+000 -1.7097829e-002 -1.7097829e-002 -1.7097829e-002 
 2.6034039e-001  0.0000000e+000  0.0000000e+000  0.0000000e+000  0.0000000e+000 -1.7090838e-002 -1.7090838e-002 -1.7090838e-002 
 2.9076070e-001  0.0000000e+000  0.0000000e+000  0.0000000e+000  0.0000000e+000 -1.6933573e-002 -1.6933573e-002 -1.6933573e-002 
 3.2331041e-001  0.0000000e+000  0.0000000e+000  0.0000000e+000  0.0000000e+000 -1.6591787e-002 -1.6591787e-002 -1.6591787e-002 
 3.5813856e-001  0.0000000e+000  0.0000000e+000  0.0000000e+000  0.0000000e+000 -1.6026871e-002 -1.6026871e-002 -1.6026871e-002 
 3.9540476e-001  0.0000000e+000  0.0000000e+000  0.0000000e+000  0.0000000e+000 -1.5196259e-002 -1.5196259e-002 -1.5196259e-002 
 4.3527961e-001  0.0000000e+000  0.0000000e+000  0.0000000e+000  0.0000000e+000 -1.4063068e-002 -1.4063068e-002 -1.4063068e-002 
 4.7794560e-001  0.0000000e+000  0.0000000e+000  0.0000000e+000  0.0000000e+000 -1.2598857e-002 -1.2598857e-002 -1.2598857e-002 
 5.2205443e-001  0.0000000e+000  0.0000000e+000  0.0000000e+000  0.0000000e+000 -1.0863325e-002 -1.0863325e-002 -1.0863325e-002 
 5.6472039e-001  0.0000000e+000  0.0000000e+000  0.0000000e+000  0.0000000e+000 -9.1862278e-003 -9.1862278e-003 -9.1862278e-003 
 6.0459524e-001  0.0000000e+000  0.0000000e+000  0.0000000e+000  0.0000000e+000 -7.7627231e-003 -7.7627231e-003 -7.7627231e-003 
 6.4186144e-001  0.0000000e+000  0.0000000e+000  0.0000000e+000  0.0000000e+000 -6.6656396e-003 -6.6656396e-003 -6.6656396e-003 
 6.7668962e-001  0.0000000e+000  0.0000000e+000  0.0000000e+000  0.0000000e+000 -5.9332917e-003 -5.9332917e-003 -5.9332917e-003 
 7.0923930e-001  0.0000000e+000  0.0000000e+000  0.0000000e+000  0.0000000e+000 -5.5545336e-003 -5.5545336e-003 -5.5545336e-003 
 7.3965955e-001  0.0000000e+000  0.0000000e+000  0.0000000e+000  0.0000000e+000 -5.4850071e-003 -5.4850071e-003 -5.4850071e-003 
 7.6808977e-001  0.0000000e+000  0.0000000e+000  0.0000000e+000  0.0000000e+000 -5.6640105e-003 -5.6640105e-003 -5.6640105e-003 
 7.9466009e-001  0.0000000e+000  0.0000000e+000  0.0000000e+000  0.0000000e+000 -6.0244901e-003 -6.0244901e-003 -6.0244901e-003 
 8.1949216e-001  0.0000000e+000  0.0000000e+000  0.0000000e+000  0.0000000e+000 -6.4998413e-003 -6.4998413e-003 -6.4998413e-003 
 8.4269965e-001  0.0000000e+000  0.0000000e+000  0.0000000e+000  0.0000000e+000 -7.0310044e-003 -7.0310044e-003 -7.0310044e-003 
 8.6438888e-001  0.0000000e+000  0.0000000e+000  0.0000000e+000  0.0000000e+000 -7.5683743e-003 -7.5683743e-003 -7.5683743e-003 
 8.8465917e-001  0.0000000e+000  0.0000000e+000  0.0000000e+000  0.0000000e+000 -8.0787446e-003 -8.0787446e-003 -8.0787446e-003 
 9.0360343e-001  0.0000000e+000  0.0000000e+000  0.0000000e+000  0.0000000e+000 -8.5272593e-003 -8.5272593e-003 -8.5272593e-003 
 9.2130828e-001  0.0000000e+000  0.0000000e+000  0.0000000e+000  0.0000000e+000 -8.9020533e-003 -8.9020533e-003 -8.9020533e-003 
 9.3785501e-001  0.0000000e+000  0.0000000e+000  0.0000000e+000  0.0000000e+000 -9.1802459e-003 -9.1802459e-003 -9.1802459e-003 
 9.5331907e-001  0.0000000e+000  0.0000000e+000  0.0000000e+000  0.0000000e+000 -9.3668830e-003 -9.3668830e-003 -9.3668830e-003 
 9.6777147e-001  0.0000000e+000  0.0000000e+000  0.0000000e+000  0.0000000e+000 -9.4625372e-003 -9.4625372e-003 -9.4625372e-003 
 9.8127842e-001  0.0000000e+000  0.0000000e+000  0.0000000e+000  0.0000000e+000 -9.4792321e-003 -9.4792321e-003 -9.4792321e-003 
 9.9390173e-001  0.0000000e+000  0.0000000e+000  0.0000000e+000  0.0000000e+000 -9.4446922e-003 -9.4446922e-003 -9.4446922e-003 
 1.0000000e+000  0.0000000e+000  0.0000000e+000  0.0000000e+000  0.0000000e+000 -9.4280057e-003 -9.4280057e-003 -9.4280057e-003 
 0.0000000e+000  6.0982401e-003  0.0000000e+000  0.0000000e+000  0.0000000e+000 -1.4331063e-002 -1.4331063e-002 -1.4331063e-002 
 6.0982401e-003  6.0982401e-003  4.4564831e-006 -4.4465032e-006  6.2953659e-006 -1.4329561e-002 -1.4329561e-002 -1.4329561e-002 
 1.8721581e-002  6.0982401e-003  2.5171952e-005 -1.0035044e-005  2.7098511e-005 -1.4326451e-002 -1.4326451e-002 -1.4326451e-002 
 3.2228529e-002  6.0982401e-003  5.1672989e-005 -9.0768026e-006  5.2464140e-005 -1.4395744e-002 -1.4395744e-002 -1.4395743e-002 
 4.6680957e-002  6.0982401e-003  6.4803098e-005 -5.0481481e-006  6.4999425e-005 -1.4542821e-002 -1.4542821e-002 -1.4542819e-002 
 6.2145084e-002  6.0982401e-003  5.0519091e-005 -1.4888416e-006  5.0541024e-005 -1.4765184e-002 -1.4765184e-002 -1.4765183e-002 
 7.8691721e-002  6.0982401e-003 -9.7288182e-007  2.6330313e-006  2.8070185e-006 -1.5042276e-002 -1.5042276e-002 -1.5042276e-002 
 9.6396603e-002  6.0982401e-003 -9.6293355e-005  6.6228954e-006  9.6520846e-005 -1.5358722e-002 -1.5358722e-002 -1.5358717e-002 
 1.1534080e-001  6.0982401e-003 -2.4033172e-004  1.0158228e-005  2.4054630e-004 -1.5695378e-002 -1.5695378e-002 -1.5695348e-002 
 1.3561110e-001  6.0982401e-003 -4.3596677e-004  1.3149840e-005  4.3616505e-004 -1.6031198e-002 -1.6031198e-002 -1.6031103e-002 
 1.5730035e-001  6.0982401e-003 -6.8416120e-004  1.5569374e-005  6.8433833e-004 -1.6344257e-002 -1.6344257e-002 -1.6344022e-002 
 1.8050785e-001  6.0982401e-003 -9.8405569e-004  1.7421902e-005  9.8420994e-004 -1.6612126e-002 -1.6612126e-002 -1.6611641e-002 
 2.0533991e-001  6.0982401e-003 -1.3330113e-003  1.8732084e-005  1.3331430e-003 -1.6811907e-002 -1.6811907e-002 -1.6811019e-002 
 2.3191020e-001  6.0982401e-003 -1.7265471e-003  1.9528026e-005  1.7266576e-003 -1.6919889e-002 -1.6919889e-002 -1.6918398e-002 
 2.6034039e-001  6.0982401e-003 -2.1582036e-003  1.9854453e-005  2.1582949e-003 -1.6911043e-002 -1.6911043e-002 -1.6908715e-002 
 2.9076070e-001  6.0982401e-003 -2.6190404e-003  1.9719981e-005  2.6191147e-003 -1.6757283e-002 -1.6757283e-002 -1.6753854e-002 
 3.2331041e-001  6.0982401e-003 -3.0961030e-003  1.9003401e-005  3.0961612e-003 -1.6425174e-002 -1.6425174e-002 -1.6420381e-002 
 3.5813856e-001  6.0982401e-003 -3.5703692e-003  1.7574563e-005  3.5704125e-003 -1.5877305e-002 -1.5877305e-002 -1.5870931e-002 
 3.9540476e-001  6.0982401e-003 -4.0139477e-003  1.5147981e-005  4.0139761e-003 -1.5072614e-002 -1.5072614e-002 -1.5064558e-002 
 4.3527961e-001  6.0982401e-003 -4.3876348e-003  1.1549305e-005  4.3876502e-003 -1.3976083e-002 -1.3976083e-002 -1.3966457e-002 
 4.7794560e-001  6.0982401e-003 -4.6368120e-003  6.3771754e-006  4.6368162e-003 -1.2561163e-002 -1.2561163e-002 -1.2550413e-002 
 5.2205443e-001  6.0982401e-003 -4.6800124e-003 -1.8858880e-006  4.6800128e-003 -1.0886543e-002 -1.0886543e-002 -1.0875592e-002 
 5.6472039e-001  6.0982401e-003 -4.4869166e-003 -9.5618025e-006  4.4869268e-003 -9.2694312e-003 -9.2694312e-003 -9.2593646e-003 
 6.0459524e-001  6.0982401e-003 -4.1081561e-003 -1.6156582e-005  4.1081877e-003 -7.8978064e-003 -7.8978064e-003 -7.8893676e-003 
 6.4186144e-001  6.0982401e-003 -3.6014442e-003 -2.1517020e-005  3.6015084e-003 -6.8409215e-003 -6.8409215e-003 -6.8344362e-003 
 6.7668962e-001  6.0982401e-003 -3.0238815e-003 -2.4971550e-005  3.0239846e-003 -6.1351159e-003 -6.1351159e-003 -6.1305435e-003 
 7.0923930e-001  6.0982401e-003 -2.4285938e-003 -2.6436423e-005  2.4287377e-003 -5.7688314e-003 -5.7688314e-003 -5.7658819e-003 
 7.3965955e-001  6.0982401e-003 -1.8578580e-003 -2.6108337e-005  1.8580415e-003 -5.6988043e-003 -5.6988043e-003 -5.6970781e-003 
 7.6808977e-001  6.0982401e-003 -1.3417363e-003 -2.4233939e-005  1.3419552e-003 -5.8663036e-003 -5.8663036e-003 -5.8654030e-003 
 7.9466009e-001  6.0982401e-003 -8.9916022e-004 -2.1103800e-005  8.9940784e-004 -6.2067085e-003 -6.2067085e-003 -6.2063038e-003 
 8.1949216e-001  6.0982401e-003 -5.3911138e-004 -1.7137820e-005  5.3938373e-004 -6.6559995e-003 -6.6559995e-003 -6.6558542e-003 
 8.4269965e-001  6.0982401e-003 -2.6245712e-004 -1.2652797e-005  2.6276193e-004 -7.1576750e-003 -7.1576750e-003 -7.1576405e-003 
 8.6438888e-001  6.0982401e-003 -6.4124812e-005 -7.8898674e-006  6.4608372e-005 -7.6646139e-003 -7.6646139e-003 -7.6646120e-003 
 8.8465917e-001  6.0982401e-003  6.4162472e-005 -3.6371273e-006  6.4265478e-005 -8.1443163e-003 -8.1443163e-003 -8.1443144e-003 
 9.0360343e-001  6.0982401e-003  1.3322924e-004  7.0852485e-007  1.3323112e-004 -8.5654641e-003 -8.5654641e-003 -8.5654547e-003 
 9.2130828e-001  6.0982401e-003  1.5493143e-004  4.1142903e-006  1.5498605e-004 -8.9152399e-003 -8.9152399e-003 -8.9152278e-003 
 9.3785501e-001  6.0982401e-003  1.4162871e-004  7.8958128e-006  1.4184864e-004 -9.1770263e-003 -9.1770263e-003 -9.1770161e-003 
 9.5331907e-001  6.0982401e-003  1.0613116e-004  1.0160640e-005  1.0661642e-004 -9.3526309e-003 -9.3526309e-003 -9.3526253e-003 
 9.6777147e-001  6.0982401e-003  6.1120954e-005  1.0436353e-005  6.2005551e-005 -9.4444305e-003 -9.4444305e-003 -9.4444286e-003 
 9.8127842e-001  6.0982401e-003  2.0530862e-005  7.4275449e-006  2.1833112e-005 -9.4626769e-003 -9.4626769e-003 -9.4626769e-003 
 9.9390173e-001  6.0982401e-003 -3.3557299e-008 -1.5588116e-008  3.7001104e-008 -9.4280113e-003 -9.4280113e-003 -9.4280113e-003 
 1.0000000e+000  6.0982401e-003  0.0000000e+000  0.0000000e+000  0.0000000e+000 -9.4112642e-003 -9.4112642e-003 -9.4112642e-003 
 0.0000000e+000  1.8721581e-002  0.0000000e+000  0.0000000e+000  0.0000000e+000 -1.4334186e-002 -1.4334186e-002 -1.4334186e-002 
 6.0982401e-003  1.8721581e-002  1.0094756e-005 -2.5186593e-005  2.7134269e-005 -1.4332694e-002 -1.4332694e-002 -1.4332694e-002 
 1.8721581e-002  1.8721581e-002  4.5197998e-005 -4.5042569e-005  6.3809814e-005 -1.4329605e-002 -1.4329605e-002 -1.4329603e-002 
 3.2228529e-002  1.8721581e-002  7.8003693e-005 -3.1472318e-005  8.4113512e-005 -1.4389703e-002 -1.4389703e-002 -1.4389699e-002 
 4.6680957e-002  1.8721581e-002  7.0346643e-005  4.3870668e-006  7.0483307e-005 -1.4515458e-002 -1.4515458e-002 -1.4515455e-002 
 6.2145084e-002  1.8721581e-002 -1.0074955e-005  5.1910567e-005  5.2879219e-005 -1.4694937e-002 -1.4694937e-002 -1.4694935e-002 
 7.8691721e-002  1.8721581e-002 -1.8941791e-004  1.0567500e-004  2.1690171e-004 -1.4925000e-002 -1.4925000e-002 -1.4924977e-002 
 9.6396603e-002  1.8721581e-002 -4.8937515e-004  1.6061039e-004  5.1505701e-004 -1.5191977e-002 -1.5191977e-002 -1.5191845e-002 
 1.1534080e-001  1.8721581e-002 -9.2584116e-004  2.1303640e-004  9.5003494e-004 -1.5479912e-002 -1.5479912e-002 -1.5479460e-002 
 1.3561110e-001  1.8721581e-002 -1.5091570e-003  2.6037160e-004  1.5314530e-003 -1.5770720e-002 -1.5770720e-002 -1.5769547e-002 
 1.5730035e-001  1.8721581e-002 -2.2440706e-003  3.0081329e-004  2.2641425e-003 -1.6044660e-002 -1.6044660e-002 -1.6042097e-002 
 1.8050785e-001  1.8721581e-002 -3.1296995e-003  3.3315568e-004  3.1473818e-003 -1.6280843e-002 -1.6280843e-002 -1.6275890e-002 
 2.0533991e-001  1.8721581e-002 -4.1594724e-003  3.5662734e-004  4.1747326e-003 -1.6457453e-002 -1.6457453e-002 -1.6448740e-002 
 2.3191020e-001  1.8721581e-002 -5.3208265e-003  3.7070282e-004  5.3337244e-003 -1.6551554e-002 -1.6551554e-002 -1.6537329e-002 
 2.6034039e-001  1.8721581e-002 -6.5946258e-003  3.7494750e-004  6.6052764e-003 -1.6538866e-002 -1.6538866e-002 -1.6517051e-002 
 2.9076070e-001  1.8721581e-002 -7.9534948e-003  3.6851098e-004  7.9620276e-003 -1.6392363e-002 -1.6392363e-002 -1.6360667e-002 
 3.2331041e-001  1.8721581e-002 -9.3577029e-003  3.4956829e-004  9.3642296e-003 -1.6080284e-002 -1.6080284e-002 -1.6036440e-002 
 3.5813856e-001  1.8721581e-002 -1.0749362e-002  3.1557985e-004  1.0753994e-002 -1.5567701e-002 -1.5567701e-002 -1.5509877e-002 
 3.9540476e-001  1.8721581e-002 -1.2044734e-002  2.6298009e-004  1.2047605e-002 -1.4816668e-002 -1.4816668e-002 -1.4744096e-002 
 4.3527961e-001  1.8721581e-002 -1.3126904e-002  1.8798336e-004  1.3128250e-002 -1.3796026e-002 -1.3796026e-002 -1.3709851e-002 
 4.7794560e-001  1.8721581e-002 -1.3834314e-002  8.5425294e-005  1.3834578e-002 -1.2483135e-002 -1.2483135e-002 -1.2387437e-002 
 5.2205443e-001  1.8721581e-002 -1.3941265e-002 -4.4523455e-005  1.3941335e-002 -1.0934607e-002 -1.0934607e-002 -1.0837426e-002 
 5.6472039e-001  1.8721581e-002 -1.3368288e-002 -1.7366759e-004  1.3369416e-002 -9.4416626e-003 -9.4416626e-003 -9.3522919e-003 
 6.0459524e-001  1.8721581e-002 -1.2259262e-002 -2.8546399e-004  1.2262585e-002 -8.1774285e-003 -8.1774285e-003 -8.1022428e-003 
 6.4186144e-001  1.8721581e-002 -1.0783149e-002 -3.7309737e-004  1.0789601e-002 -7.2037550e-003 -7.2037550e-003 -7.1455473e-003 
 6.7668962e-001  1.8721581e-002 -9.1057513e-003 -4.3081137e-004  9.1159372e-003 -6.5528909e-003 -6.5528909e-003 -6.5113408e-003 
 7.0923930e-001  1.8721581e-002 -7.3785991e-003 -4.5747749e-004  7.3927674e-003 -6.2124273e-003 -6.2124273e-003 -6.1851009e-003 
 7.3965955e-001  1.8721581e-002 -5.7220971e-003 -4.5566607e-004  5.7402113e-003 -6.1413636e-003 -6.1413636e-003 -6.1248885e-003 
 7.6808977e-001  1.8721581e-002 -4.2216685e-003 -4.2960362e-004  4.2434707e-003 -6.2850500e-003 -6.2850500e-003 -6.2760464e-003 
 7.9466009e-001  1.8721581e-002 -2.9305981e-003 -3.8443611e-004  2.9557056e-003 -6.5839002e-003 -6.5839002e-003 -6.5795323e-003 
 8.1949216e-001  1.8721581e-002 -1.8738590e-003 -3.2607894e-004  1.9020187e-003 -6.9792466e-003 -6.9792466e-003 -6.9774380e-003 
 8.4269965e-001  1.8721581e-002 -1.0535162e-003 -2.6003362e-004  1.0851331e-003 -7.4198823e-003 -7.4198823e-003 -7.4192937e-003 
 8.6438888e-001  1.8721581e-002 -4.5522934e-004 -1.9112282e-004  4.9372227e-004 -7.8638298e-003 -7.8638298e-003 -7.8637078e-003 
 8.8465917e-001  1.8721581e-002 -5.4453074e-005 -1.2424534e-004  1.3565413e-004 -8.2800500e-003 -8.2800500e-003 -8.2800407e-003 
 9.0360343e-001  1.8721581e-002  1.7981022e-004 -6.1873012e-005  1.9015779e-004 -8.6445482e-003 -8.6445482e-003 -8.6445305e-003 
 9.2130828e-001  1.8721581e-002  2.8211414e-004 -8.1006301e-006  2.8223041e-004 -8.9425370e-003 -8.9425370e-003 -8.9424970e-003 
 9.3785501e-001  1.8721581e-002  2.8714584e-004  3.5159894e-005  2.8929042e-004 -9.1703609e-003 -9.1703609e-003 -9.1703190e-003 
 9.5331907e-001  1.8721581e-002  2.2942538e-004  6.3201027e-005  2.3797137e-004 -9.3231285e-003 -9.3231285e-003 -9.3231006e-003 
 9.6777147e-001  1.8721581e-002  1.4243132e-004  7.2195893e-005  1.5968384e-004 -9.4069503e-003 -9.4069503e-003 -9.4069373e-003 
 9.8127842e-001  1.8721581e-002  5.7982532e-005  5.8101301e-005  8.2083709e-005 -9.4284080e-003 -9.4284080e-003 -9.4284043e-003 
 9.9390173e-001  1.8721581e-002  7.3019605e-006  2.0468888e-005  2.1732327e-005 -9.3934825e-003 -9.3934825e-003 -9.3934825e-003 
 1.0000000e+000  1.8721581e-002  0.0000000e+000  0.0000000e+000  0.0000000e+000 -9.3766106e-003 -9.3766106e-003 -9.3766106e-003 
 0.0000000e+000  3.2228529e-002  0.0000000e+000  0.0000000e+000  0.0000000e+000 -1.4260160e-002 -1.4260160e-002 -1.4260160e-002 
 6.0982401e-003  3.2228529e-002  9.2954961e-006 -5.1952698e-005  5.2777734e-005 -1.4263324e-002 -1.4263324e-002 -1.4263323e-002 
 1.8721581e-002  3.2228529e-002  3.2001841e-005 -7.8037701e-005  8.4344538e-005 -1.4269873e-002 -1.4269873e-002 -1.4269869e-002 
 3.2228529e-002  3.2228529e-002  2.9590097e-005 -2.9226148e-005  4.1590163e-005 -1.4330501e-002 -1.4330501e-002 -1.4330500e-002 
 4.6680957e-002  3.2228529e-002 -4.5010358e-005  7.3258263e-005  8.5980842e-005 -1.4445406e-002 -1.4445406e-002 -1.4445403e-002 
 6.2145084e-002  3.2228529e-002 -2.3579483e-004  2.1071652e-004  3.1622880e-004 -1.4607984e-002 -1.4607984e-002 -1.4607933e-002 
 7.8691721e-002  3.2228529e-002 -5.8179372e-004  3.6676036e-004  6.8774784e-004 -1.4812578e-002 -1.4812578e-002 -1.4812342e-002 
 9.6396603e-002  3.2228529e-002 -1.1166097e-003  5.2825606e-004  1.2352618e-003 -1.5049234e-002 -1.5049234e-002 -1.5048471e-002 
 1.1534080e-001  3.2228529e-002 -1.8668525e-003  6.8468059e-004  1.9884482e-003 -1.5304873e-002 -1.5304873e-002 -1.5302896e-002 
 1.3561110e-001  3.2228529e-002 -2.8511507e-003  8.2785875e-004  2.9689074e-003 -1.5563904e-002 -1.5563904e-002 -1.5559497e-002 
 1.5730035e-001  3.2228529e-002 -4.0794173e-003  9.5165224e-004  4.1889483e-003 -1.5808737e-002 -1.5808737e-002 -1.5799964e-002 
 1.8050785e-001  3.2228529e-002 -5.5523054e-003  1.0516378e-003  5.6510209e-003 -1.6020270e-002 -1.6020270e-002 -1.6004303e-002 
 2.0533991e-001  3.2228529e-002 -7.2607030e-003  1.1247050e-003  7.3472969e-003 -1.6178124e-002 -1.6178124e-002 -1.6151132e-002 
 2.3191020e-001  3.2228529e-002 -9.1849212e-003  1.1685428e-003  9.2589557e-003 -1.6260538e-002 -1.6260538e-002 -1.6217673e-002 
 2.6034039e-001  3.2228529e-002 -1.1293431e-002  1.1810868e-003  1.1355023e-002 -1.6244372e-002 -1.6244372e-002 -1.6179904e-002 
 2.9076070e-001  3.2228529e-002 -1.3539859e-002  1.1591406e-003  1.3589385e-002 -1.6103793e-002 -1.6103793e-002 -1.6011458e-002 
 3.2331041e-001  3.2228529e-002 -1.5856542e-002  1.0969618e-003  1.5894441e-002 -1.5808489e-002 -1.5808489e-002 -1.5682172e-002 
 3.5813856e-001  3.2228529e-002 -1.8145362e-002  9.8659901e-004  1.8172164e-002 -1.5325468e-002 -1.5325468e-002 -1.5160354e-002 
 3.9540476e-001  3.2228529e-002 -2.0265870e-002  8.1746699e-004  2.0282350e-002 -1.4619065e-002 -1.4619065e-002 -1.4413377e-002 
 4.3527961e-001  3.2228529e-002 -2.2023601e-002  5.7787687e-004  2.2031182e-002 -1.3660841e-002 -1.3660841e-002 -1.3418154e-002 
 4.7794560e-001  3.2228529e-002 -2.3152929e-002  2.5388791e-004  2.3154320e-002 -1.2429389e-002 -1.2429389e-002 -1.2161328e-002 
 5.2205443e-001  3.2228529e-002 -2.3300668e-002 -1.4574818e-004  2.3301125e-002 -1.0978480e-002 -1.0978480e-002 -1.0707009e-002 
 5.6472039e-001  3.2228529e-002 -2.2348832e-002 -5.4472161e-004  2.2355469e-002 -9.5801279e-003 -9.5801279e-003 -9.3302447e-003 
 6.0459524e-001  3.2228529e-002 -2.0529531e-002 -8.9009124e-004  2.0548817e-002 -8.3970744e-003 -8.3970744e-003 -8.1859473e-003 
 6.4186144e-001  3.2228529e-002 -1.8118868e-002 -1.1594207e-003  1.8155925e-002 -7.4851885e-003 -7.4851885e-003 -7.3203696e-003 
 6.7668962e-001  3.2228529e-002 -1.5385665e-002 -1.3370637e-003  1.5443653e-002 -6.8744975e-003 -6.8744975e-003 -6.7552445e-003 
 7.0923930e-001  3.2228529e-002 -1.2572597e-002 -1.4200597e-003  1.2652540e-002 -6.5526273e-003 -6.5526273e-003 -6.4725839e-003 
 7.3965955e-001  3.2228529e-002 -9.8720724e-003 -1.4162521e-003  9.9731432e-003 -6.4805439e-003 -6.4805439e-003 -6.4308122e-003 
 7.6808977e-001  3.2228529e-002 -7.4202409e-003 -1.3387933e-003  7.5400490e-003 -6.6068689e-003 -6.6068689e-003 -6.5784426e-003 
 7.9466009e-001  3.2228529e-002 -5.3015840e-003 -1.2036305e-003  5.4364987e-003 -6.8760668e-003 -6.8760668e-003 -6.8612890e-003 
 8.1949216e-001  3.2228529e-002 -3.5555423e-003 -1.0286182e-003  3.7013425e-003 -7.2334628e-003 -7.2334628e-003 -7.2266129e-003 
 8.4269965e-001  3.2228529e-002 -2.1852148e-003 -8.3064166e-004  2.3377617e-003 -7.6317624e-003 -7.6317624e-003 -7.6290299e-003 
 8.6438888e-001  3.2228529e-002 -1.1677417e-003 -6.2464777e-004  1.3243132e-003 -8.0326246e-003 -8.0326246e-003 -8.0317473e-003 
 8.8465917e-001  3.2228529e-002 -4.6366942e-004 -4.2384450e-004  6.2819861e-004 -8.4075816e-003 -8.4075816e-003 -8.4073842e-003 
 9.0360343e-001  3.2228529e-002 -2.3666178e-005 -2.3845893e-004  2.3963045e-004 -8.7360088e-003 -8.7360088e-003 -8.7359799e-003 
 9.2130828e-001  3.2228529e-002  2.0621529e-004 -7.8254227e-005  2.2056399e-004 -9.0055764e-003 -9.0055764e-003 -9.0055522e-003 
 9.3785501e-001  3.2228529e-002  2.8030991e-004  4.8005317e-005  2.8439084e-004 -9.2107728e-003 -9.2107728e-003 -9.2107328e-003 
 9.5331907e-001  3.2228529e-002  2.5108477e-004  1.3201180e-004  2.8367355e-004 -9.3506547e-003 -9.3506547e-003 -9.3506146e-003 
 9.6777147e-001  3.2228529e-002  1.6698228e-004  1.6569217e-004  2.3523813e-004 -9.4297612e-003 -9.4297612e-003 -9.4297333e-003 
 9.8127842e-001  3.2228529e-002  7.2418821e-005  1.4251942e-004  1.5986330e-004 -9.4505539e-003 -9.4505539e-003 -9.4505409e-003 
 9.9390173e-001  3.2228529e-002  1.0202089e-005  6.0841016e-005  6.1690451e-005 -9.4112465e-003 -9.4112465e-003 -9.4112447e-003 
 1.0000000e+000  3.2228529e-002  0.0000000e+000  0.0000000e+000  0.0000000e+000 -9.3922578e-003 -9.3922578e-003 -9.3922578e-003 
 0.0000000e+000  4.6680957e-002  0.0000000e+000  0.0000000e+000  0.0000000e+000 -1.4100681e-002 -1.4100681e-002 -1.4100681e-002 
 6.0982401e-003  4.6680957e-002  5.4679649e-006 -6.5635162e-005  6.5862536e-005 -1.4114801e-002 -1.4114801e-002 -1.4114799e-002 
 1.8721581e-002  4.6680957e-002 -4.0011091e-006 -7.0541246e-005  7.0654627e-005 -1.4144029e-002 -1.4144029e-002 -1.4144026e-002 
 3.2228529e-002  4.6680957e-002 -7.4548050e-005  4.5518354e-005  8.7346052e-005 -1.4217413e-002 -1.4217413e-002 -1.4217409e-002 
 4.6680957e-002  4.6680957e-002 -2.5616016e-004  2.5273024e-004  3.5984803e-004 -1.4333724e-002 -1.4333724e-002 -1.4333659e-002 
 6.2145084e-002  4.6680957e-002 -5.9901079e-004  5.2273367e-004  7.9502480e-004 -1.4489762e-002 -1.4489762e-002 -1.4489446e-002 
 7.8691721e-002  4.6680957e-002 -1.1508355e-003  8.2873018e-004  1.4181735e-003 -1.4680221e-002 -1.4680221e-002 -1.4679215e-002 
 9.6396603e-002  4.6680957e-002 -1.9545204e-003  1.1473018e-003  2.2663740e-003 -1.4897056e-002 -1.4897056e-002 -1.4894487e-002 
 1.1534080e-001  4.6680957e-002 -3.0457494e-003  1.4585296e-003  3.3769659e-003 -1.5129426e-002 -1.5129426e-002 -1.5123724e-002 
 1.3561110e-001  4.6680957e-002 -4.4509433e-003  1.7459947e-003  4.7811498e-003 -1.5363967e-002 -1.5363967e-002 -1.5352537e-002 
 1.5730035e-001  4.6680957e-002 -6.1855274e-003  1.9966641e-003  6.4998013e-003 -1.5585241e-002 -1.5585241e-002 -1.5564118e-002 
 1.8050785e-001  4.6680957e-002 -8.2525229e-003  2.2005925e-003  8.5408865e-003 -1.5776131e-002 -1.5776131e-002 -1.5739659e-002 
 2.0533991e-001  4.6680957e-002 -1.0641256e-002  2.3503250e-003  1.0897723e-002 -1.5918018e-002 -1.5918018e-002 -1.5858639e-002 
 2.3191020e-001  4.6680957e-002 -1.3325724e-002  2.4399967e-003  1.3547269e-002 -1.5990695e-002 -1.5990695e-002 -1.5898930e-002 
 2.6034039e-001  4.6680957e-002 -1.6262420e-002  2.4642292e-003  1.6448062e-002 -1.5972596e-002 -1.5972596e-002 -1.5837327e-002 
 2.9076070e-001  4.6680957e-002 -1.9385817e-002  2.4155187e-003  1.9535726e-002 -1.5839277e-002 -1.5839277e-002 -1.5648454e-002 
 3.2331041e-001  4.6680957e-002 -2.2599649e-002  2.2816933e-003  2.2714538e-002 -1.5561877e-002 -1.5561877e-002 -1.5303901e-002 
 3.5813856e-001  4.6680957e-002 -2.5764802e-002  2.0463027e-003  2.5845936e-002 -1.5109071e-002 -1.5109071e-002 -1.4775065e-002 
 3.9540476e-001  4.6680957e-002 -2.8683886e-002  1.6880949e-003  2.8733516e-002 -1.4446956e-002 -1.4446956e-002 -1.4034148e-002 
 4.3527961e-001  4.6680957e-002 -3.1086072e-002  1.1836898e-003  3.1108601e-002 -1.3548962e-002 -1.3548962e-002 -1.3065089e-002 
 4.7794560e-001  4.6680957e-002 -3.2606073e-002  5.0825480e-004  3.2610033e-002 -1.2392710e-002 -1.2392710e-002 -1.1861003e-002 
 5.2205443e-001  4.6680957e-002 -3.2777153e-002 -3.1294566e-004  3.2778647e-002 -1.1027468e-002 -1.1027468e-002 -1.0490249e-002 
 5.6472039e-001  4.6680957e-002 -3.1450614e-002 -1.1327926e-003  3.1471007e-002 -9.7107142e-003 -9.7107142e-003 -9.2155021e-003 
 6.0459524e-001  4.6680957e-002 -2.8943455e-002 -1.8420236e-003  2.9002011e-002 -8.5972417e-003 -8.5972417e-003 -8.1766834e-003 
 6.4186144e-001  4.6680957e-002 -2.5633890e-002 -2.3936611e-003  2.5745407e-002 -7.7375383e-003 -7.7375383e-003 -7.4061253e-003 
 6.7668962e-001  4.6680957e-002 -2.1887317e-002 -2.7579505e-003  2.2060392e-002 -7.1606929e-003 -7.1606929e-003 -6.9173626e-003 
 7.0923930e-001  4.6680957e-002 -1.8030660e-002 -2.9298156e-003  1.8267144e-002 -6.8549989e-003 -6.8549989e-003 -6.6881548e-003 
 7.3965955e-001  4.6680957e-002 -1.4322658e-002 -2.9254821e-003  1.4618378e-002 -6.7833471e-003 -6.7833471e-003 -6.6764988e-003 
 7.6808977e-001  4.6680957e-002 -1.0946008e-002 -2.7720961e-003  1.1291573e-002 -6.8970220e-003 -6.8970220e-003 -6.8332721e-003 
 7.9466009e-001  4.6680957e-002 -8.0138249e-003 -2.5022889e-003  8.3954055e-003 -7.1441303e-003 -7.1441303e-003 -7.1088891e-003 
 8.1949216e-001  4.6680957e-002 -5.5791424e-003 -2.1522003e-003  5.9798658e-003 -7.4731484e-003 -7.4731484e-003 -7.4552689e-003 
 8.4269965e-001  4.6680957e-002 -3.6464427e-003 -1.7561417e-003  4.0472928e-003 -7.8399172e-003 -7.8399172e-003 -7.8317272e-003 
 8.6438888e-001  4.6680957e-002 -2.1855778e-003 -1.3445123e-003  2.5660209e-003 -8.2090059e-003 -8.2090059e-003 -8.2057137e-003 
 8.8465917e-001  4.6680957e-002 -1.1441237e-003 -9.4342709e-004  1.4829275e-003 -8.5542873e-003 -8.5542873e-003 -8.5531874e-003 
 9.0360343e-001  4.6680957e-002 -4.5687199e-004 -5.7426566e-004  7.3383452e-004 -8.8573461e-003 -8.8573461e-003 -8.8570770e-003 
 9.2130828e-001  4.6680957e-002 -5.3215877e-005 -2.5543908e-004  2.6092347e-004 -9.1074007e-003 -9.1074007e-003 -9.1073662e-003 
 9.3785501e-001  4.6680957e-002  1.3733045e-004 -2.7892770e-006  1.3735877e-004 -9.2991749e-003 -9.2991749e-003 -9.2991656e-003 
 9.5331907e-001  4.6680957e-002  1.8147337e-004  1.6997631e-004  2.4864540e-004 -9.4325505e-003 -9.4325505e-003 -9.4325198e-003 
 9.6777147e-001  4.6680957e-002  1.3946023e-004  2.5096047e-004  2.8710678e-004 -9.5109288e-003 -9.5109288e-003 -9.5108878e-003 
 9.8127842e-001  4.6680957e-002  6.5429616e-005  2.3121931e-004  2.4029857e-004 -9.5346188e-003 -9.5346188e-003 -9.5345899e-003 
 9.9390173e-001  4.6680957e-002  9.9618310e-006  1.0611203e-004  1.0657861e-004 -9.5007587e-003 -9.5007587e-003 -9.5007531e-003 
 1.0000000e+000  4.6680957e-002  0.0000000e+000  0.0000000e+000  0.0000000e+000 -9.4844010e-003 -9.4844010e-003 -9.4844010e-003 
 0.0000000e+000  6.2145084e-002  0.0000000e+000  0.0000000e+000  0.0000000e+000 -1.3851251e-002 -1.3851251e-002 -1.3851251e-002 
 6.0982401e-003  6.2145084e-002  2.0072810e-006 -5.1600120e-005  5.1639148e-005 -1.3887512e-002 -1.3887512e-002 -1.3887512e-002 
 1.8721581e-002  6.2145084e-002 -5.3398941e-005  1.1800968e-005  5.4687382e-005 -1.3962572e-002 -1.3962572e-002 -1.3962571e-002 
 3.2228529e-002  6.2145084e-002 -2.1908025e-004  2.4032360e-004  3.2519471e-004 -1.4056047e-002 -1.4056047e-002 -1.4055994e-002 
 4.6680957e-002  6.2145084e-002 -5.4138241e-004  5.9791666e-004  8.0659735e-004 -1.4182759e-002 -1.4182759e-002 -1.4182434e-002 
 6.2145084e-002  6.2145084e-002 -1.0739341e-003  1.0476735e-003  1.5003181e-003 -1.4341129e-002 -1.4341129e-002 -1.4340004e-002 
 7.8691721e-002  6.2145084e-002 -1.8698545e-003  1.5527628e-003  2.4305203e-003 -1.4525941e-002 -1.4525941e-002 -1.4522986e-002 
 9.6396603e-002  6.2145084e-002 -2.9783319e-003  2.0788130e-003  3.6320689e-003 -1.4730575e-002 -1.4730575e-002 -1.4723980e-002 
 1.1534080e-001  6.2145084e-002 -4.4418499e-003  2.5949702e-003  5.1443074e-003 -1.4946141e-002 -1.4946141e-002 -1.4932909e-002 
 1.3561110e-001  6.2145084e-002 -6.2932200e-003  3.0745049e-003  7.0040845e-003 -1.5161387e-002 -1.5161387e-002 -1.5136858e-002 
 1.5730035e-001  6.2145084e-002 -8.5527990e-003  3.4951612e-003  9.2394007e-003 -1.5363059e-002 -1.5363059e-002 -1.5320376e-002 
 1.8050785e-001  6.2145084e-002 -1.1226042e-002  3.8390853e-003  1.1864342e-002 -1.5536201e-002 -1.5536201e-002 -1.5465820e-002 
 2.0533991e-001  6.2145084e-002 -1.4301156e-002  4.0921597e-003  1.4875107e-002 -1.5664238e-002 -1.5664238e-002 -1.5553604e-002 
 2.3191020e-001  6.2145084e-002 -1.7746355e-002  4.2427420e-003  1.8246479e-002 -1.5728852e-002 -1.5728852e-002 -1.5562384e-002 
 2.6034039e-001  6.2145084e-002 -2.1506635e-002  4.2799702e-003  2.1928372e-002 -1.5710546e-002 -1.5710546e-002 -1.5470119e-002 
 2.9076070e-001  6.2145084e-002 -2.5497483e-002  4.1895243e-003  2.5839385e-002 -1.5586355e-002 -1.5586355e-002 -1.5252518e-002 
 3.2331041e-001  6.2145084e-002 -2.9593846e-002  3.9498662e-003  2.9856276e-002 -1.5329018e-002 -1.5329018e-002 -1.4883320e-002 
 3.5813856e-001  6.2145084e-002 -3.3615541e-002  3.5327126e-003  3.3800662e-002 -1.4908710e-002 -1.4908710e-002 -1.4337468e-002 
 3.9540476e-001  6.2145084e-002 -3.7308767e-002  2.9024682e-003  3.7421498e-002 -1.4292886e-002 -1.4292886e-002 -1.3592702e-002 