Variables = "x","y", "Velocity_x", "Velocity_y", "Velocity_whole value", "Pressure", "Absolute pressure", "Total pressure"
Zone i=42, j=42
 0.0000000e+000  0.0000000e+000  0.0000000e+000  0.0000000e+000  0.0000000e+000 -1.4329606e-002 -1.4329606e-002 -1.4329606e-002 
 6.0982401e-003  0.0000000e+000  0.0000000e+000  0.0000000e+000  0.0000000e+000 -1.4328099e-002 -1.4328099e-002 -1.4328099e-002 
 1.8721581e-002  0.0000000e+000  0.0000000e+000  0.0000000e+000  0.0000000e+000 -1.4324979e-002 -1.4324979e-002 -1.4324979e-002 
 3.2228529e-002  0.0000000e+000  0.0000000e+000  0.0000000e+000  0.0000000e+000 -1.4398712e-002 -1.4398712e-002 -1.4398712e-002 
 4.6680957e-002  0.0000000e+000  0.0000000e+000  0.0000000e+000  0.0000000e+000 -1.4556088e-002 -1.4556088e-002 -1.4556088e-002 
 6.2145084e-002  0.0000000e+000  0.0000000e+000  0.0000000e+000  0.0000000e+000 -1.4799169e-002 -1.4799169e-002 -1.4799169e-002 
 7.8691721e-002  0.0000000e+000  0.0000000e+000  0.0000000e+000  0.0000000e+000 -1.5098982e-002 -1.5098982e-002 -1.5098982e-002 
 9.6396603e-002  0.0000000e+000  0.0000000e+000  0.0000000e+000  0.0000000e+000 -1.5439325e-002 -1.5439325e-002 -1.5439325e-002 
 1.1534080e-001  0.0000000e+000  0.0000000e+000  0.0000000e+000  0.0000000e+000 -1.5799521e-002 -1.5799521e-002 -1.5799521e-002 
 1.3561110e-001  0.0000000e+000  0.0000000e+000  0.0000000e+000  0.0000000e+000 -1.6157085e-002 -1.6157085e-002 -1.6157085e-002 
 1.5730035e-001  0.0000000e+000  0.0000000e+000  0.0000000e+000  0.0000000e+000 -1.6489040e-002 -1.6489040e-002 -1.6489040e-002 
 1.8050785e-001  0.0000000e+000  0.0000000e+000  0.0000000e+000  0.0000000e+000 -1.6772214e-002 -1.6772214e-002 -1.6772214e-002 
 2.0533991e-001  0.0000000e+000  0.0000000e+000  0.0000000e+000  0.0000000e+000 -1.6983194e-002 -1.6983194e-002 -1.6983194e-002 
 2.3191020e-001  0.0000000e+000  0.0000000e+000  0.0000000e+000  0.0000000e+000 -1.7097881e-002 -1.7097881e-002 -1.7097881e-002 
 2.6034039e-001  0.0000000e+000  0.0000000e+000  0.0000000e+000  0.0000000e+000 -1.7090892e-002 -1.7090892e-002 -1.7090892e-002 
 2.9076070e-001  0.0000000e+000  0.0000000e+000  0.0000000e+000  0.0000000e+000 -1.6933626e-002 -1.6933626e-002 -1.6933626e-002 
 3.2331041e-001  0.0000000e+000  0.0000000e+000  0.0000000e+000  0.0000000e+000 -1.6591836e-002 -1.6591836e-002 -1.6591836e-002 
 3.5813856e-001  0.0000000e+000  0.0000000e+000  0.0000000e+000  0.0000000e+000 -1.6026925e-002 -1.6026925e-002 -1.6026925e-002 
 3.9540476e-001  0.0000000e+000  0.0000000e+000  0.0000000e+000  0.0000000e+000 -1.5196313e-002 -1.5196313e-002 -1.5196313e-002 
 4.3527961e-001  0.0000000e+000  0.0000000e+000  0.0000000e+000  0.0000000e+000 -1.4063117e-002 -1.4063117e-002 -1.4063117e-002 
 4.7794560e-001  0.0000000e+000  0.0000000e+000  0.0000000e+000  0.0000000e+000 -1.2598915e-002 -1.2598915e-002 -1.2598915e-002 
 5.2205443e-001  0.0000000e+000  0.0000000e+000  0.0000000e+000  0.0000000e+000 -1.0863373e-002 -1.0863373e-002 -1.0863373e-002 
 5.6472039e-001  0.0000000e+000  0.0000000e+000  0.0000000e+000  0.0000000e+000 -9.1862790e-003 -9.1862790e-003 -9.1862790e-003 
 6.0459524e-001  0.0000000e+000  0.0000000e+000  0.0000000e+000  0.0000000e+000 -7.7627744e-003 -7.7627744e-003 -7.7627744e-003 
 6.4186144e-001  0.0000000e+000  0.0000000e+000  0.0000000e+000  0.0000000e+000 -6.6656908e-003 -6.6656908e-003 -6.6656908e-003 
 6.7668962e-001  0.0000000e+000  0.0000000e+000  0.0000000e+000  0.0000000e+000 -5.9333448e-003 -5.9333448e-003 -5.9333448e-003 
 7.0923930e-001  0.0000000e+000  0.0000000e+000  0.0000000e+000  0.0000000e+000 -5.5545866e-003 -5.5545866e-003 -5.5545866e-003 
 7.3965955e-001  0.0000000e+000  0.0000000e+000  0.0000000e+000  0.0000000e+000 -5.4850597e-003 -5.4850597e-003 -5.4850597e-003 
 7.6808977e-001  0.0000000e+000  0.0000000e+000  0.0000000e+000  0.0000000e+000 -5.6640627e-003 -5.6640627e-003 -5.6640627e-003 
 7.9466009e-001  0.0000000e+000  0.0000000e+000  0.0000000e+000  0.0000000e+000 -6.0245423e-003 -6.0245423e-003 -6.0245423e-003 
 8.1949216e-001  0.0000000e+000  0.0000000e+000  0.0000000e+000  0.0000000e+000 -6.4998940e-003 -6.4998940e-003 -6.4998940e-003 
 8.4269965e-001  0.0000000e+000  0.0000000e+000  0.0000000e+000  0.0000000e+000 -7.0310580e-003 -7.0310580e-003 -7.0310580e-003 
 8.6438888e-001  0.0000000e+000  0.0000000e+000  0.0000000e+000  0.0000000e+000 -7.5684260e-003 -7.5684260e-003 -7.5684260e-003 
 8.8465917e-001  0.0000000e+000  0.0000000e+000  0.0000000e+000  0.0000000e+000 -8.0787959e-003 -8.0787959e-003 -8.0787959e-003 
 9.0360343e-001  0.0000000e+000  0.0000000e+000  0.0000000e+000  0.0000000e+000 -8.5273106e-003 -8.5273106e-003 -8.5273106e-003 
 9.2130828e-001  0.0000000e+000  0.0000000e+000  0.0000000e+000  0.0000000e+000 -8.9021046e-003 -8.9021046e-003 -8.9021046e-003 
 9.3785501e-001  0.0000000e+000  0.0000000e+000  0.0000000e+000  0.0000000e+000 -9.1802990e-003 -9.1802990e-003 -9.1802990e-003 
 9.5331907e-001  0.0000000e+000  0.0000000e+000  0.0000000e+000  0.0000000e+000 -9.3669342e-003 -9.3669342e-003 -9.3669342e-003 
 9.6777147e-001  0.0000000e+000  0.0000000e+000  0.0000000e+000  0.0000000e+000 -9.4625866e-003 -9.4625866e-003 -9.4625866e-003 
 9.8127842e-001  0.0000000e+000  0.0000000e+000  0.0000000e+000  0.0000000e+000 -9.4792843e-003 -9.4792843e-003 -9.4792843e-003 
 9.9390173e-001  0.0000000e+000  0.0000000e+000  0.0000000e+000  0.0000000e+000 -9.4447443e-003 -9.4447443e-003 -9.4447443e-003 
 1.0000000e+000  0.0000000e+000  0.0000000e+000  0.0000000e+000  0.0000000e+000 -9.4280578e-003 -9.4280578e-003 -9.4280578e-003 
 0.0000000e+000  6.0982401e-003  0.0000000e+000  0.0000000e+000  0.0000000e+000 -1.4331114e-002 -1.4331114e-002 -1.4331114e-002 
 6.0982401e-003  6.0982401e-003  4.4567241e-006 -4.4462558e-006  6.2953618e-006 -1.4329612e-002 -1.4329612e-002 -1.4329612e-002 
 1.8721581e-002  6.0982401e-003  2.5172279e-005 -1.0034605e-005  2.7098653e-005 -1.4326503e-002 -1.4326503e-002 -1.4326503e-002 
 3.2228529e-002  6.0982401e-003  5.1673280e-005 -9.0762733e-006  5.2464336e-005 -1.4395794e-002 -1.4395794e-002 -1.4395793e-002 
 4.6680957e-002  6.0982401e-003  6.4803302e-005 -5.0472700e-006  6.4999564e-005 -1.4542871e-002 -1.4542871e-002 -1.4542869e-002 
 6.2145084e-002  6.0982401e-003  5.0519295e-005 -1.4880178e-006  5.0541203e-005 -1.4765235e-002 -1.4765235e-002 -1.4765234e-002 
 7.8691721e-002  6.0982401e-003 -9.7261182e-007  2.6338555e-006  2.8076981e-006 -1.5042327e-002 -1.5042327e-002 -1.5042327e-002 
 9.6396603e-002  6.0982401e-003 -9.6293224e-005  6.6233106e-006  9.6520744e-005 -1.5358773e-002 -1.5358773e-002 -1.5358768e-002 
 1.1534080e-001  6.0982401e-003 -2.4033147e-004  1.0158547e-005  2.4054607e-004 -1.5695430e-002 -1.5695430e-002 -1.5695401e-002 
 1.3561110e-001  6.0982401e-003 -4.3596674e-004  1.3150208e-005  4.3616502e-004 -1.6031250e-002 -1.6031250e-002 -1.6031155e-002 
 1.5730035e-001  6.0982401e-003 -6.8416126e-004  1.5570249e-005  6.8433839e-004 -1.6344307e-002 -1.6344307e-002 -1.6344072e-002 
 1.8050785e-001  6.0982401e-003 -9.8405569e-004  1.7422850e-005  9.8420994e-004 -1.6612176e-002 -1.6612176e-002 -1.6611692e-002 
 2.0533991e-001  6.0982401e-003 -1.3330114e-003  1.8732844e-005  1.3331431e-003 -1.6811959e-002 -1.6811959e-002 -1.6811071e-002 
 2.3191020e-001  6.0982401e-003 -1.7265471e-003  1.9528672e-005  1.7266576e-003 -1.6919941e-002 -1.6919941e-002 -1.6918451e-002 
 2.6034039e-001  6.0982401e-003 -2.1582039e-003  1.9855044e-005  2.1582951e-003 -1.6911097e-002 -1.6911097e-002 -1.6908769e-002 
 2.9076070e-001  6.0982401e-003 -2.6190409e-003  1.9720470e-005  2.6191152e-003 -1.6757336e-002 -1.6757336e-002 -1.6753906e-002 
 3.2331041e-001  6.0982401e-003 -3.0961034e-003  1.9004245e-005  3.0961619e-003 -1.6425224e-002 -1.6425224e-002 -1.6420431e-002 
 3.5813856e-001  6.0982401e-003 -3.5703690e-003  1.7574857e-005  3.5704123e-003 -1.5877359e-002 -1.5877359e-002 -1.5870985e-002 
 3.9540476e-001  6.0982401e-003 -4.0139486e-003  1.5148456e-005  4.0139770e-003 -1.5072669e-002 -1.5072669e-002 -1.5064613e-002 
 4.3527961e-001  6.0982401e-003 -4.3876362e-003  1.1549863e-005  4.3876516e-003 -1.3976134e-002 -1.3976134e-002 -1.3966508e-002 
 4.7794560e-001  6.0982401e-003 -4.6368130e-003  6.3773000e-006  4.6368171e-003 -1.2561220e-002 -1.2561220e-002 -1.2550469e-002 
 5.2205443e-001  6.0982401e-003 -4.6800137e-003 -1.8850802e-006  4.6800142e-003 -1.0886594e-002 -1.0886594e-002 -1.0875642e-002 
 5.6472039e-001  6.0982401e-003 -4.4869175e-003 -9.5613987e-006  4.4869278e-003 -9.2694834e-003 -9.2694834e-003 -9.2594167e-003 
 6.0459524e-001  6.0982401e-003 -4.1081561e-003 -1.6156348e-005  4.1081877e-003 -7.8978585e-003 -7.8978585e-003 -7.8894198e-003 
 6.4186144e-001  6.0982401e-003 -3.6014451e-003 -2.1517038e-005  3.6015094e-003 -6.8409736e-003 -6.8409736e-003 -6.8344884e-003 
 6.7668962e-001  6.0982401e-003 -3.0238822e-003 -2.4971718e-005  3.0239853e-003 -6.1351690e-003 -6.1351690e-003 -6.1305966e-003 
 7.0923930e-001  6.0982401e-003 -2.4285943e-003 -2.6436481e-005  2.4287382e-003 -5.7688844e-003 -5.7688844e-003 -5.7659349e-003 
 7.3965955e-001  6.0982401e-003 -1.8578584e-003 -2.6108324e-005  1.8580419e-003 -5.6988569e-003 -5.6988569e-003 -5.6971307e-003 
 7.6808977e-001  6.0982401e-003 -1.3417366e-003 -2.4233776e-005  1.3419555e-003 -5.8663562e-003 -5.8663562e-003 -5.8654556e-003 
 7.9466009e-001  6.0982401e-003 -8.9916057e-004 -2.1103673e-005  8.9940819e-004 -6.2067611e-003 -6.2067611e-003 -6.2063565e-003 
 8.1949216e-001  6.0982401e-003 -5.3911156e-004 -1.7137767e-005  5.3938391e-004 -6.6560525e-003 -6.6560525e-003 -6.6559073e-003 
 8.4269965e-001  6.0982401e-003 -2.6245735e-004 -1.2652591e-005  2.6276216e-004 -7.1577285e-003 -7.1577285e-003 -7.1576941e-003 
 8.6438888e-001  6.0982401e-003 -6.4125008e-005 -7.8895218e-006  6.4608525e-005 -7.6646665e-003 -7.6646665e-003 -7.6646646e-003 
 8.8465917e-001  6.0982401e-003  6.4162261e-005 -3.6366521e-006  6.4265238e-005 -8.1443684e-003 -8.1443684e-003 -8.1443666e-003 
 9.0360343e-001  6.0982401e-003  1.3322916e-004  7.0899722e-007  1.3323105e-004 -8.5655162e-003 -8.5655162e-003 -8.5655069e-003 
 9.2130828e-001  6.0982401e-003  1.5493132e-004  4.1147687e-006  1.5498594e-004 -8.9152921e-003 -8.9152921e-003 -8.9152800e-003 
 9.3785501e-001  6.0982401e-003  1.4162865e-004  7.8961239e-006  1.4184859e-004 -9.1770794e-003 -9.1770794e-003 -9.1770692e-003 
 9.5331907e-001  6.0982401e-003  1.0613105e-004  1.0161129e-005  1.0661636e-004 -9.3526831e-003 -9.3526831e-003 -9.3526775e-003 
 9.6777147e-001  6.0982401e-003  6.1120751e-005  1.0436915e-005  6.2005449e-005 -9.4444817e-003 -9.4444817e-003 -9.4444798e-003 
 9.8127842e-001  6.0982401e-003  2.0530610e-005  7.4279055e-006  2.1832995e-005 -9.4627291e-003 -9.4627291e-003 -9.4627291e-003 
 9.9390173e-001  6.0982401e-003 -3.3791725e-008 -1.5390489e-008  3.7131493e-008 -9.4280634e-003 -9.4280634e-003 -9.4280634e-003 
 1.0000000e+000  6.0982401e-003  0.0000000e+000  0.0000000e+000  0.0000000e+000 -9.4113164e-003 -9.4113164e-003 -9.4113164e-003 
 0.0000000e+000  1.8721581e-002  0.0000000e+000  0.0000000e+000  0.0000000e+000 -1.4334237e-002 -1.4334237e-002 -1.4334237e-002 
 6.0982401e-003  1.8721581e-002  1.0095205e-005 -2.5186257e-005  2.7134123e-005 -1.4332745e-002 -1.4332745e-002 -1.4332745e-002 
 1.8721581e-002  1.8721581e-002  4.5198787e-005 -4.5041776e-005  6.3809814e-005 -1.4329656e-002 -1.4329656e-002 -1.4329654e-002 
 3.2228529e-002  1.8721581e-002  7.8004363e-005 -3.1471278e-005  8.4113744e-005 -1.4389754e-002 -1.4389754e-002 -1.4389751e-002 
 4.6680957e-002  1.8721581e-002  7.0347603e-005  4.3885125e-006  7.0484355e-005 -1.4515511e-002 -1.4515511e-002 -1.4515508e-002 
 6.2145084e-002  1.8721581e-002 -1.0074458e-005  5.1912270e-005  5.2880794e-005 -1.4694990e-002 -1.4694990e-002 -1.4694988e-002 
 7.8691721e-002  1.8721581e-002 -1.8941735e-004  1.0567618e-004  2.1690180e-004 -1.4925053e-002 -1.4925053e-002 -1.4925030e-002 
 9.6396603e-002  1.8721581e-002 -4.8937462e-004  1.6061126e-004  5.1505677e-004 -1.5192030e-002 -1.5192030e-002 -1.5191898e-002 
 1.1534080e-001  1.8721581e-002 -9.2584098e-004  2.1303703e-004  9.5003488e-004 -1.5479965e-002 -1.5479965e-002 -1.5479513e-002 
 1.3561110e-001  1.8721581e-002 -1.5091569e-003  2.6037291e-004  1.5314531e-003 -1.5770774e-002 -1.5770774e-002 -1.5769601e-002 
 1.5730035e-001  1.8721581e-002 -2.2440702e-003  3.0081553e-004  2.2641425e-003 -1.6044712e-002 -1.6044712e-002 -1.6042149e-002 
 1.8050785e-001  1.8721581e-002 -3.1296995e-003  3.3315763e-004  3.1473818e-003 -1.6280897e-002 -1.6280897e-002 -1.6275944e-002 
 2.0533991e-001  1.8721581e-002 -4.1594724e-003  3.5662908e-004  4.1747331e-003 -1.6457506e-002 -1.6457506e-002 -1.6448792e-002 
 2.3191020e-001  1.8721581e-002 -5.3208265e-003  3.7070451e-004  5.3337244e-003 -1.6551606e-002 -1.6551606e-002 -1.6537381e-002 
 2.6034039e-001  1.8721581e-002 -6.5946262e-003  3.7494808e-004  6.6052768e-003 -1.6538922e-002 -1.6538922e-002 -1.6517106e-002 
 2.9076070e-001  1.8721581e-002 -7.9534966e-003  3.6851270e-004  7.9620294e-003 -1.6392417e-002 -1.6392417e-002 -1.6360721e-002 
 3.2331041e-001  1.8721581e-002 -9.3577038e-003  3.4957097e-004  9.3642306e-003 -1.6080339e-002 -1.6080339e-002 -1.6036494e-002 
 3.5813856e-001  1.8721581e-002 -1.0749362e-002  3.1558116e-004  1.0753994e-002 -1.5567755e-002 -1.5567755e-002 -1.5509931e-002 
 3.9540476e-001  1.8721581e-002 -1.2044736e-002  2.6298143e-004  1.2047607e-002 -1.4816726e-002 -1.4816726e-002 -1.4744153e-002 
 4.3527961e-001  1.8721581e-002 -1.3126907e-002  1.8798377e-004  1.3128253e-002 -1.3796080e-002 -1.3796080e-002 -1.3709905e-002 
 4.7794560e-001  1.8721581e-002 -1.3834317e-002  8.5426247e-005  1.3834581e-002 -1.2483191e-002 -1.2483191e-002 -1.2387493e-002 
 5.2205443e-001  1.8721581e-002 -1.3941269e-002 -4.4522480e-005  1.3941340e-002 -1.0934661e-002 -1.0934661e-002 -1.0837480e-002 
 5.6472039e-001  1.8721581e-002 -1.3368290e-002 -1.7366723e-004  1.3369418e-002 -9.4417166e-003 -9.4417166e-003 -9.3523460e-003 
 6.0459524e-001  1.8721581e-002 -1.2259264e-002 -2.8546373e-004  1.2262587e-002 -8.1774825e-003 -8.1774825e-003 -8.1022969e-003 
 6.4186144e-001  1.8721581e-002 -1.0783152e-002 -3.7309816e-004  1.0789605e-002 -7.2038081e-003 -7.2038081e-003 -7.1456004e-003 
 6.7668962e-001  1.8721581e-002 -9.1057532e-003 -4.3081204e-004  9.1159390e-003 -6.5529435e-003 -6.5529435e-003 -6.5113935e-003 
 7.0923930e-001  1.8721581e-002 -7.3786001e-003 -4.5747843e-004  7.3927683e-003 -6.2124794e-003 -6.2124794e-003 -6.1851530e-003 
 7.3965955e-001  1.8721581e-002 -5.7220981e-003 -4.5566692e-004  5.7402123e-003 -6.1414163e-003 -6.1414163e-003 -6.1249412e-003 
 7.6808977e-001  1.8721581e-002 -4.2216694e-003 -4.2960409e-004  4.2434717e-003 -6.2851030e-003 -6.2851030e-003 -6.2760995e-003 
 7.9466009e-001  1.8721581e-002 -2.9305988e-003 -3.8443669e-004  2.9557066e-003 -6.5839528e-003 -6.5839528e-003 -6.5795849e-003 
 8.1949216e-001  1.8721581e-002 -1.8738597e-003 -3.2607955e-004  1.9020195e-003 -6.9793002e-003 -6.9793002e-003 -6.9774915e-003 
 8.4269965e-001  1.8721581e-002 -1.0535169e-003 -2.6003426e-004  1.0851339e-003 -7.4199354e-003 -7.4199354e-003 -7.4193468e-003 
 8.6438888e-001  1.8721581e-002 -4.5522992e-004 -1.9112312e-004  4.9372291e-004 -7.8638839e-003 -7.8638839e-003 -7.8637619e-003 
 8.8465917e-001  1.8721581e-002 -5.4453685e-005 -1.2424510e-004  1.3565415e-004 -8.2801040e-003 -8.2801040e-003 -8.2800947e-003 
 9.0360343e-001  1.8721581e-002  1.7980984e-004 -6.1872626e-005  1.9015730e-004 -8.6446023e-003 -8.6446023e-003 -8.6445846e-003 
 9.2130828e-001  1.8721581e-002  2.8211382e-004 -8.1002327e-006  2.8223009e-004 -8.9425901e-003 -8.9425901e-003 -8.9425500e-003 
 9.3785501e-001  1.8721581e-002  2.8714561e-004  3.5160294e-005  2.8929024e-004 -9.1704149e-003 -9.1704149e-003 -9.1703730e-003 
 9.5331907e-001  1.8721581e-002  2.2942502e-004  6.3201835e-005  2.3797124e-004 -9.3231825e-003 -9.3231825e-003 -9.3231546e-003 
 9.6777147e-001  1.8721581e-002  1.4243109e-004  7.2196861e-005  1.5968407e-004 -9.4070043e-003 -9.4070043e-003 -9.4069913e-003 
 9.8127842e-001  1.8721581e-002  5.7981997e-005  5.8101770e-005  8.2083665e-005 -9.4284602e-003 -9.4284602e-003 -9.4284564e-003 
 9.9390173e-001  1.8721581e-002  7.3016299e-006  2.0469073e-005  2.1732390e-005 -9.3935346e-003 -9.3935346e-003 -9.3935346e-003 
 1.0000000e+000  1.8721581e-002  0.0000000e+000  0.0000000e+000  0.0000000e+000 -9.3766628e-003 -9.3766628e-003 -9.3766628e-003 
 0.0000000e+000  3.2228529e-002  0.0000000e+000  0.0000000e+000  0.0000000e+000 -1.4260211e-002 -1.4260211e-002 -1.4260211e-002 
 6.0982401e-003  3.2228529e-002  9.2959617e-006 -5.1952378e-005  5.2777501e-005 -1.4263375e-002 -1.4263375e-002 -1.4263374e-002 
 1.8721581e-002  3.2228529e-002  3.2002972e-005 -7.8036777e-005  8.4344108e-005 -1.4269924e-002 -1.4269924e-002 -1.4269920e-002 
 3.2228529e-002  3.2228529e-002  2.9590969e-005 -2.9225081e-005  4.1590032e-005 -1.4330552e-002 -1.4330552e-002 -1.4330551e-002 
 4.6680957e-002  3.2228529e-002 -4.5009558e-005  7.3259376e-005  8.5981374e-005 -1.4445459e-002 -1.4445459e-002 -1.4445455e-002 
 6.2145084e-002  3.2228529e-002 -2.3579382e-004  2.1071809e-004  3.1622910e-004 -1.4608037e-002 -1.4608037e-002 -1.4607986e-002 
 7.8691721e-002  3.2228529e-002 -5.8179273e-004  3.6676196e-004  6.8774784e-004 -1.4812632e-002 -1.4812632e-002 -1.4812396e-002 
 9.6396603e-002  3.2228529e-002 -1.1166091e-003  5.2825740e-004  1.2352618e-003 -1.5049288e-002 -1.5049288e-002 -1.5048525e-002 
 1.1534080e-001  3.2228529e-002 -1.8668524e-003  6.8468117e-004  1.9884482e-003 -1.5304926e-002 -1.5304926e-002 -1.5302949e-002 
 1.3561110e-001  3.2228529e-002 -2.8511502e-003  8.2785991e-004  2.9689071e-003 -1.5563957e-002 -1.5563957e-002 -1.5559550e-002 
 1.5730035e-001  3.2228529e-002 -4.0794173e-003  9.5165439e-004  4.1889488e-003 -1.5808791e-002 -1.5808791e-002 -1.5800018e-002 
 1.8050785e-001  3.2228529e-002 -5.5523058e-003  1.0516399e-003  5.6510218e-003 -1.6020322e-002 -1.6020322e-002 -1.6004356e-002 
 2.0533991e-001  3.2228529e-002 -7.2607035e-003  1.1247067e-003  7.3472974e-003 -1.6178178e-002 -1.6178178e-002 -1.6151186e-002 
 2.3191020e-001  3.2228529e-002 -9.1849212e-003  1.1685445e-003  9.2589566e-003 -1.6260592e-002 -1.6260592e-002 -1.6217727e-002 
 2.6034039e-001  3.2228529e-002 -1.1293432e-002  1.1810882e-003  1.1355024e-002 -1.6244426e-002 -1.6244426e-002 -1.6179958e-002 
 2.9076070e-001  3.2228529e-002 -1.3539862e-002  1.1591418e-003  1.3589388e-002 -1.6103847e-002 -1.6103847e-002 -1.6011512e-002 
 3.2331041e-001  3.2228529e-002 -1.5856544e-002  1.0969634e-003  1.5894443e-002 -1.5808543e-002 -1.5808543e-002 -1.5682226e-002 
 3.5813856e-001  3.2228529e-002 -1.8145362e-002  9.8659948e-004  1.8172164e-002 -1.5325522e-002 -1.5325522e-002 -1.5160408e-002 
 3.9540476e-001  3.2228529e-002 -2.0265874e-002  8.1746810e-004  2.0282354e-002 -1.4619121e-002 -1.4619121e-002 -1.4413434e-002 
 4.3527961e-001  3.2228529e-002 -2.2023605e-002  5.7787762e-004  2.2031186e-002 -1.3660890e-002 -1.3660890e-002 -1.3418203e-002 
 4.7794560e-001  3.2228529e-002 -2.3152934e-002  2.5388965e-004  2.3154326e-002 -1.2429445e-002 -1.2429445e-002 -1.2161383e-002 
 5.2205443e-001  3.2228529e-002 -2.3300674e-002 -1.4574874e-004  2.3301130e-002 -1.0978534e-002 -1.0978534e-002 -1.0707063e-002 
 5.6472039e-001  3.2228529e-002 -2.2348836e-002 -5.4472184e-004  2.2355473e-002 -9.5801810e-003 -9.5801810e-003 -9.3302978e-003 
 6.0459524e-001  3.2228529e-002 -2.0529535e-002 -8.9009159e-004  2.0548820e-002 -8.3971284e-003 -8.3971284e-003 -8.1860013e-003 
 6.4186144e-001  3.2228529e-002 -1.8118873e-002 -1.1594213e-003  1.8155931e-002 -7.4852388e-003 -7.4852388e-003 -7.3204199e-003 
 6.7668962e-001  3.2228529e-002 -1.5385668e-002 -1.3370649e-003  1.5443657e-002 -6.8745506e-003 -6.8745506e-003 -6.7552975e-003 
 7.0923930e-001  3.2228529e-002 -1.2572599e-002 -1.4200602e-003  1.2652542e-002 -6.5526790e-003 -6.5526790e-003 -6.4726355e-003 
 7.3965955e-001  3.2228529e-002 -9.8720742e-003 -1.4162529e-003  9.9731451e-003 -6.4805960e-003 -6.4805960e-003 -6.4308643e-003 
 7.6808977e-001  3.2228529e-002 -7.4202428e-003 -1.3387938e-003  7.5400514e-003 -6.6069211e-003 -6.6069211e-003 -6.5784948e-003 
 7.9466009e-001  3.2228529e-002 -5.3015854e-003 -1.2036311e-003  5.4365005e-003 -6.8761189e-003 -6.8761189e-003 -6.8613412e-003 
 8.1949216e-001  3.2228529e-002 -3.5555435e-003 -1.0286190e-003  3.7013439e-003 -7.2335145e-003 -7.2335145e-003 -7.2266646e-003 
 8.4269965e-001  3.2228529e-002 -2.1852159e-003 -8.3064218e-004  2.3377629e-003 -7.6318150e-003 -7.6318150e-003 -7.6290825e-003 
 8.6438888e-001  3.2228529e-002 -1.1677427e-003 -6.2464800e-004  1.3243142e-003 -8.0326768e-003 -8.0326768e-003 -8.0317995e-003 
 8.8465917e-001  3.2228529e-002 -4.6367032e-004 -4.2384464e-004  6.2819937e-004 -8.4076356e-003 -8.4076356e-003 -8.4074382e-003 
 9.0360343e-001  3.2228529e-002 -2.3666911e-005 -2.3845893e-004  2.3963052e-004 -8.7360609e-003 -8.7360609e-003 -8.7360321e-003 
 9.2130828e-001  3.2228529e-002  2.0621475e-004 -7.8254074e-005  2.2056342e-004 -9.0056276e-003 -9.0056276e-003 -9.0056034e-003 
 9.3785501e-001  3.2228529e-002  2.8030956e-004  4.8005506e-005  2.8439052e-004 -9.2108250e-003 -9.2108250e-003 -9.2107849e-003 
 9.5331907e-001  3.2228529e-002  2.5108433e-004  1.3201211e-004  2.8367329e-004 -9.3507087e-003 -9.3507087e-003 -9.3506686e-003 
 9.6777147e-001  3.2228529e-002  1.6698209e-004  1.6569279e-004  2.3523843e-004 -9.4298162e-003 -9.4298162e-003 -9.4297882e-003 
 9.8127842e-001  3.2228529e-002  7.2418174e-005  1.4252003e-004  1.5986354e-004 -9.4506079e-003 -9.4506079e-003 -9.4505949e-003 
 9.9390173e-001  3.2228529e-002  1.0201774e-005  6.0841274e-005  6.1690655e-005 -9.4112987e-003 -9.4112987e-003 -9.4112968e-003 
 1.0000000e+000  3.2228529e-002  0.0000000e+000  0.0000000e+000  0.0000000e+000 -9.3923090e-003 -9.3923090e-003 -9.3923090e-003 
 0.0000000e+000  4.6680957e-002  0.0000000e+000  0.0000000e+000  0.0000000e+000 -1.4100732e-002 -1.4100732e-002 -1.4100732e-002 
 6.0982401e-003  4.6680957e-002  5.4684392e-006 -6.5634893e-005  6.5862303e-005 -1.4114852e-002 -1.4114852e-002 -1.4114850e-002 
 1.8721581e-002  4.6680957e-002 -4.0000186e-006 -7.0540533e-005  7.0653856e-005 -1.4144081e-002 -1.4144081e-002 -1.4144078e-002 
 3.2228529e-002  4.6680957e-002 -7.4547075e-005  4.5519395e-005  8.7345761e-005 -1.4217466e-002 -1.4217466e-002 -1.4217462e-002 
 4.6680957e-002  4.6680957e-002 -2.5615928e-004  2.5273138e-004  3.5984820e-004 -1.4333776e-002 -1.4333776e-002 -1.4333711e-002 
 6.2145084e-002  4.6680957e-002 -5.9900963e-004  5.2273477e-004  7.9502462e-004 -1.4489815e-002 -1.4489815e-002 -1.4489499e-002 
 7.8691721e-002  4.6680957e-002 -1.1508346e-003  8.2873134e-004  1.4181734e-003 -1.4680273e-002 -1.4680273e-002 -1.4679267e-002 
 9.6396603e-002  4.6680957e-002 -1.9545199e-003  1.1473027e-003  2.2663742e-003 -1.4897108e-002 -1.4897108e-002 -1.4894539e-002 
 1.1534080e-001  4.6680957e-002 -3.0457487e-003  1.4585304e-003  3.3769654e-003 -1.5129478e-002 -1.5129478e-002 -1.5123776e-002 
 1.3561110e-001  4.6680957e-002 -4.4509433e-003  1.7459957e-003  4.7811503e-003 -1.5364019e-002 -1.5364019e-002 -1.5352589e-002 
 1.5730035e-001  4.6680957e-002 -6.1855274e-003  1.9966660e-003  6.4998018e-003 -1.5585294e-002 -1.5585294e-002 -1.5564171e-002 
 1.8050785e-001  4.6680957e-002 -8.2525238e-003  2.2005949e-003  8.5408883e-003 -1.5776185e-002 -1.5776185e-002 -1.5739713e-002 
 2.0533991e-001  4.6680957e-002 -1.0641258e-002  2.3503269e-003  1.0897725e-002 -1.5918072e-002 -1.5918072e-002 -1.5858691e-002 
 2.3191020e-001  4.6680957e-002 -1.3325725e-002  2.4399988e-003  1.3547271e-002 -1.5990747e-002 -1.5990747e-002 -1.5898982e-002 
 2.6034039e-001  4.6680957e-002 -1.6262421e-002  2.4642309e-003  1.6448064e-002 -1.5972652e-002 -1.5972652e-002 -1.5837383e-002 
 2.9076070e-001  4.6680957e-002 -1.9385820e-002  2.4155206e-003  1.9535730e-002 -1.5839333e-002 -1.5839333e-002 -1.5648510e-002 
 3.2331041e-001  4.6680957e-002 -2.2599651e-002  2.2816958e-003  2.2714540e-002 -1.5561931e-002 -1.5561931e-002 -1.5303955e-002 
 3.5813856e-001  4.6680957e-002 -2.5764806e-002  2.0463034e-003  2.5845939e-002 -1.5109125e-002 -1.5109125e-002 -1.4775118e-002 
 3.9540476e-001  4.6680957e-002 -2.8683892e-002  1.6880967e-003  2.8733522e-002 -1.4447013e-002 -1.4447013e-002 -1.4034205e-002 
 4.3527961e-001  4.6680957e-002 -3.1086078e-002  1.1836920e-003  3.1108607e-002 -1.3549012e-002 -1.3549012e-002 -1.3065140e-002 
 4.7794560e-001  4.6680957e-002 -3.2606080e-002  5.0825655e-004  3.2610040e-002 -1.2392770e-002 -1.2392770e-002 -1.1861063e-002 
 5.2205443e-001  4.6680957e-002 -3.2777160e-002 -3.1294604e-004  3.2778654e-002 -1.1027516e-002 -1.1027516e-002 -1.0490295e-002 
 5.6472039e-001  4.6680957e-002 -3.1450618e-002 -1.1327936e-003  3.1471010e-002 -9.7107682e-003 -9.7107682e-003 -9.2155561e-003 
 6.0459524e-001  4.6680957e-002 -2.8943460e-002 -1.8420243e-003  2.9002016e-002 -8.5972939e-003 -8.5972939e-003 -8.1767356e-003 
 6.4186144e-001  4.6680957e-002 -2.5633896e-002 -2.3936615e-003  2.5745412e-002 -7.7375895e-003 -7.7375895e-003 -7.4061765e-003 
 6.7668962e-001  4.6680957e-002 -2.1887321e-002 -2.7579519e-003  2.2060398e-002 -7.1607437e-003 -7.1607437e-003 -6.9174133e-003 
 7.0923930e-001  4.6680957e-002 -1.8030664e-002 -2.9298165e-003  1.8267147e-002 -6.8550506e-003 -6.8550506e-003 -6.6882065e-003 
 7.3965955e-001  4.6680957e-002 -1.4322662e-002 -2.9254830e-003  1.4618382e-002 -6.7833993e-003 -6.7833993e-003 -6.6765505e-003 
 7.6808977e-001  4.6680957e-002 -1.0946011e-002 -2.7720970e-003  1.1291576e-002 -6.8970742e-003 -6.8970742e-003 -6.8333242e-003 
 7.9466009e-001  4.6680957e-002 -8.0138268e-003 -2.5022898e-003  8.3954083e-003 -7.1441820e-003 -7.1441820e-003 -7.1089407e-003 
 8.1949216e-001  4.6680957e-002 -5.5791442e-003 -2.1522013e-003  5.9798681e-003 -7.4732010e-003 -7.4732010e-003 -7.4553215e-003 
 8.4269965e-001  4.6680957e-002 -3.6464445e-003 -1.7561426e-003  4.0472946e-003 -7.8399694e-003 -7.8399694e-003 -7.8317793e-003 
 8.6438888e-001  4.6680957e-002 -2.1855792e-003 -1.3445127e-003  2.5660223e-003 -8.2090581e-003 -8.2090581e-003 -8.2057659e-003 
 8.8465917e-001  4.6680957e-002 -1.1441247e-003 -9.4342715e-004  1.4829282e-003 -8.5543385e-003 -8.5543385e-003 -8.5532386e-003 
 9.0360343e-001  4.6680957e-002 -4.5687298e-004 -5.7426543e-004  7.3383492e-004 -8.8573983e-003 -8.8573983e-003 -8.8571291e-003 
 9.2130828e-001  4.6680957e-002 -5.3216732e-005 -2.5543891e-004  2.6092347e-004 -9.1074537e-003 -9.1074537e-003 -9.1074193e-003 
 9.3785501e-001  4.6680957e-002  1.3732990e-004 -2.7890380e-006  1.3735822e-004 -9.2992280e-003 -9.2992280e-003 -9.2992187e-003 
 9.5331907e-001  4.6680957e-002  1.8147267e-004  1.6997667e-004  2.4864514e-004 -9.4326017e-003 -9.4326017e-003 -9.4325710e-003 
 9.6777147e-001  4.6680957e-002  1.3945975e-004  2.5096070e-004  2.8710676e-004 -9.5109819e-003 -9.5109819e-003 -9.5109409e-003 
 9.8127842e-001  4.6680957e-002  6.5429253e-005  2.3121975e-004  2.4029889e-004 -9.5346719e-003 -9.5346719e-003 -9.5346430e-003 
 9.9390173e-001  4.6680957e-002  9.9616127e-006  1.0611216e-004  1.0657872e-004 -9.5008109e-003 -9.5008109e-003 -9.5008053e-003 
 1.0000000e+000  4.6680957e-002  0.0000000e+000  0.0000000e+000  0.0000000e+000 -9.4844531e-003 -9.4844531e-003 -9.4844531e-003 
 0.0000000e+000  6.2145084e-002  0.0000000e+000  0.0000000e+000  0.0000000e+000 -1.3851303e-002 -1.3851303e-002 -1.3851303e-002 
 6.0982401e-003  6.2145084e-002  2.0076361e-006 -5.1599876e-005  5.1638919e-005 -1.3887564e-002 -1.3887564e-002 -1.3887563e-002 
 1.8721581e-002  6.2145084e-002 -5.3397740e-005  1.1801608e-005  5.4686348e-005 -1.3962625e-002 -1.3962625e-002 -1.3962623e-002 
 3.2228529e-002  6.2145084e-002 -2.1907933e-004  2.4032447e-004  3.2519471e-004 -1.4056101e-002 -1.4056101e-002 -1.4056047e-002 
 4.6680957e-002  6.2145084e-002 -5.4138148e-004  5.9791759e-004  8.0659741e-004 -1.4182812e-002 -1.4182812e-002 -1.4182487e-002 
 6.2145084e-002  6.2145084e-002 -1.0739330e-003  1.0476747e-003  1.5003181e-003 -1.4341180e-002 -1.4341180e-002 -1.4340055e-002 
 7.8691721e-002  6.2145084e-002 -1.8698537e-003  1.5527643e-003  2.4305205e-003 -1.4525993e-002 -1.4525993e-002 -1.4523039e-002 
 9.6396603e-002  6.2145084e-002 -2.9783314e-003  2.0788149e-003  3.6320696e-003 -1.4730628e-002 -1.4730628e-002 -1.4724032e-002 
 1.1534080e-001  6.2145084e-002 -4.4418494e-003  2.5949716e-003  5.1443079e-003 -1.4946193e-002 -1.4946193e-002 -1.4932960e-002 
 1.3561110e-001  6.2145084e-002 -6.2932195e-003  3.0745061e-003  7.0040845e-003 -1.5161440e-002 -1.5161440e-002 -1.5136912e-002 
 1.5730035e-001  6.2145084e-002 -8.5527999e-003  3.4951628e-003  9.2394017e-003 -1.5363111e-002 -1.5363111e-002 -1.5320428e-002 
 1.8050785e-001  6.2145084e-002 -1.1226043e-002  3.8390872e-003  1.1864343e-002 -1.5536253e-002 -1.5536253e-002 -1.5465872e-002 
 2.0533991e-001  6.2145084e-002 -1.4301158e-002  4.0921615e-003  1.4875110e-002 -1.5664291e-002 -1.5664291e-002 -1.5553656e-002 
 2.3191020e-001  6.2145084e-002 -1.7746357e-002  4.2427448e-003  1.8246481e-002 -1.5728904e-002 -1.5728904e-002 -1.5562437e-002 
 2.6034039e-001  6.2145084e-002 -2.1506639e-002  4.2799721e-003  2.1928376e-002 -1.5710600e-002 -1.5710600e-002 -1.5470173e-002 
 2.9076070e-001  6.2145084e-002 -2.5497487e-002  4.1895257e-003  2.5839388e-002 -1.5586409e-002 -1.5586409e-002 -1.5252572e-002 
 3.2331041e-001  6.2145084e-002 -2.9593850e-002  3.9498685e-003  2.9856279e-002 -1.5329073e-002 -1.5329073e-002 -1.4883375e-002 
 3.5813856e-001  6.2145084e-002 -3.3615544e-002  3.5327149e-003  3.3800665e-002 -1.4908764e-002 -1.4908764e-002 -1.4337521e-002 
 3.9540476e-001  6.2145084e-002 -3.7308775e-002  2.9024701e-003  3.7421506e-002 -1.4292944e-002 -1.4292944e-002 -1.3592760e-002 