Variables = "x","y", "Velocity_x", "Velocity_y", "Velocity_whole value", "Pressure", "Absolute pressure", "Total pressure"
Zone i=102, j=42
 0.0000000e+000  0.0000000e+000  0.0000000e+000  0.0000000e+000  0.0000000e+000  5.5239067e+000  5.5239067e+000  5.5239067e+000 
 8.0802897e-003  0.0000000e+000  0.0000000e+000  0.0000000e+000  0.0000000e+000  4.9193363e+000  4.9193363e+000  4.9193363e+000 
 2.4563596e-002  0.0000000e+000  0.0000000e+000  0.0000000e+000  0.0000000e+000  3.6860490e+000  3.6860490e+000  3.6860490e+000 
 4.1706085e-002  0.0000000e+000  0.0000000e+000  0.0000000e+000  0.0000000e+000  3.0978177e+000  3.0978177e+000  3.0978177e+000 
 5.9533693e-002  0.0000000e+000  0.0000000e+000  0.0000000e+000  0.0000000e+000  2.8685863e+000  2.8685863e+000  2.8685863e+000 
 7.8074649e-002  0.0000000e+000  0.0000000e+000  0.0000000e+000  0.0000000e+000  2.7682953e+000  2.7682953e+000  2.7682953e+000 
 9.7358689e-002  0.0000000e+000  0.0000000e+000  0.0000000e+000  0.0000000e+000  2.7163200e+000  2.7163200e+000  2.7163200e+000 
 1.1741330e-001  0.0000000e+000  0.0000000e+000  0.0000000e+000  0.0000000e+000  2.6838157e+000  2.6838157e+000  2.6838157e+000 
 1.3826905e-001  0.0000000e+000  0.0000000e+000  0.0000000e+000  0.0000000e+000  2.6595304e+000  2.6595304e+000  2.6595304e+000 
 1.5995945e-001  0.0000000e+000  0.0000000e+000  0.0000000e+000  0.0000000e+000  2.6395018e+000  2.6395018e+000  2.6395018e+000 
 1.8251725e-001  0.0000000e+000  0.0000000e+000  0.0000000e+000  0.0000000e+000  2.6222789e+000  2.6222789e+000  2.6222789e+000 
 2.0597759e-001  0.0000000e+000  0.0000000e+000  0.0000000e+000  0.0000000e+000  2.6071262e+000  2.6071262e+000  2.6071262e+000 
 2.3037639e-001  0.0000000e+000  0.0000000e+000  0.0000000e+000  0.0000000e+000  2.5935535e+000  2.5935535e+000  2.5935535e+000 
 2.5575179e-001  0.0000000e+000  0.0000000e+000  0.0000000e+000  0.0000000e+000  2.5811946e+000  2.5811946e+000  2.5811946e+000 
 2.8214192e-001  0.0000000e+000  0.0000000e+000  0.0000000e+000  0.0000000e+000  2.5697720e+000  2.5697720e+000  2.5697720e+000 
 3.0958712e-001  0.0000000e+000  0.0000000e+000  0.0000000e+000  0.0000000e+000  2.5590641e+000  2.5590641e+000  2.5590641e+000 
 3.3813170e-001  0.0000000e+000  0.0000000e+000  0.0000000e+000  0.0000000e+000  2.5488999e+000  2.5488999e+000  2.5488999e+000 
 3.6781764e-001  0.0000000e+000  0.0000000e+000  0.0000000e+000  0.0000000e+000  2.5391397e+000  2.5391397e+000  2.5391397e+000 
 3.9869076e-001  0.0000000e+000  0.0000000e+000  0.0000000e+000  0.0000000e+000  2.5296705e+000  2.5296705e+000  2.5296705e+000 
 4.3079910e-001  0.0000000e+000  0.0000000e+000  0.0000000e+000  0.0000000e+000  2.5203991e+000  2.5203991e+000  2.5203991e+000 
 4.6419144e-001  0.0000000e+000  0.0000000e+000  0.0000000e+000  0.0000000e+000  2.5112467e+000  2.5112467e+000  2.5112467e+000 
 4.9891889e-001  0.0000000e+000  0.0000000e+000  0.0000000e+000  0.0000000e+000  2.5021477e+000  2.5021477e+000  2.5021477e+000 
 5.3503573e-001  0.0000000e+000  0.0000000e+000  0.0000000e+000  0.0000000e+000  2.4930460e+000  2.4930460e+000  2.4930460e+000 
 5.7259679e-001  0.0000000e+000  0.0000000e+000  0.0000000e+000  0.0000000e+000  2.4838946e+000  2.4838946e+000  2.4838946e+000 
 6.1166000e-001  0.0000000e+000  0.0000000e+000  0.0000000e+000  0.0000000e+000  2.4746513e+000  2.4746513e+000  2.4746513e+000 
 6.5228653e-001  0.0000000e+000  0.0000000e+000  0.0000000e+000  0.0000000e+000  2.4652824e+000  2.4652824e+000  2.4652824e+000 
 6.9453812e-001  0.0000000e+000  0.0000000e+000  0.0000000e+000  0.0000000e+000  2.4557588e+000  2.4557588e+000  2.4557588e+000 
 7.3847967e-001  0.0000000e+000  0.0000000e+000  0.0000000e+000  0.0000000e+000  2.4460549e+000  2.4460549e+000  2.4460549e+000 
 7.8417897e-001  0.0000000e+000  0.0000000e+000  0.0000000e+000  0.0000000e+000  2.4361508e+000  2.4361508e+000  2.4361508e+000 
 8.3170545e-001  0.0000000e+000  0.0000000e+000  0.0000000e+000  0.0000000e+000  2.4260294e+000  2.4260294e+000  2.4260294e+000 
 8.8113320e-001  0.0000000e+000  0.0000000e+000  0.0000000e+000  0.0000000e+000  2.4156764e+000  2.4156764e+000  2.4156764e+000 
 9.3253934e-001  0.0000000e+000  0.0000000e+000  0.0000000e+000  0.0000000e+000  2.4050803e+000  2.4050803e+000  2.4050803e+000 
 9.8600167e-001  0.0000000e+000  0.0000000e+000  0.0000000e+000  0.0000000e+000  2.3942318e+000  2.3942318e+000  2.3942318e+000 
 1.0416015e+000  0.0000000e+000  0.0000000e+000  0.0000000e+000  0.0000000e+000  2.3831244e+000  2.3831244e+000  2.3831244e+000 
 1.0994256e+000  0.0000000e+000  0.0000000e+000  0.0000000e+000  0.0000000e+000  2.3717513e+000  2.3717513e+000  2.3717513e+000 
 1.1595621e+000  0.0000000e+000  0.0000000e+000  0.0000000e+000  0.0000000e+000  2.3601079e+000  2.3601079e+000  2.3601079e+000 
 1.2221041e+000  0.0000000e+000  0.0000000e+000  0.0000000e+000  0.0000000e+000  2.3481901e+000  2.3481901e+000  2.3481901e+000 
 1.2871475e+000  0.0000000e+000  0.0000000e+000  0.0000000e+000  0.0000000e+000  2.3359945e+000  2.3359945e+000  2.3359945e+000 
 1.3547925e+000  0.0000000e+000  0.0000000e+000  0.0000000e+000  0.0000000e+000  2.3235161e+000  2.3235161e+000  2.3235161e+000 
 1.4251450e+000  0.0000000e+000  0.0000000e+000  0.0000000e+000  0.0000000e+000  2.3107514e+000  2.3107514e+000  2.3107514e+000 
 1.4983110e+000  0.0000000e+000  0.0000000e+000  0.0000000e+000  0.0000000e+000  2.2976968e+000  2.2976968e+000  2.2976968e+000 
 1.5744021e+000  0.0000000e+000  0.0000000e+000  0.0000000e+000  0.0000000e+000  2.2843466e+000  2.2843466e+000  2.2843466e+000 
 1.6535370e+000  0.0000000e+000  0.0000000e+000  0.0000000e+000  0.0000000e+000  2.2706962e+000  2.2706962e+000  2.2706962e+000 
 1.7358396e+000  0.0000000e+000  0.0000000e+000  0.0000000e+000  0.0000000e+000  2.2567375e+000  2.2567375e+000  2.2567375e+000 
 1.8214340e+000  0.0000000e+000  0.0000000e+000  0.0000000e+000  0.0000000e+000  2.2424653e+000  2.2424653e+000  2.2424653e+000 
 1.9104514e+000  0.0000000e+000  0.0000000e+000  0.0000000e+000  0.0000000e+000  2.2278714e+000  2.2278714e+000  2.2278714e+000 
 2.0030293e+000  0.0000000e+000  0.0000000e+000  0.0000000e+000  0.0000000e+000  2.2129462e+000  2.2129462e+000  2.2129462e+000 
 2.0993104e+000  0.0000000e+000  0.0000000e+000  0.0000000e+000  0.0000000e+000  2.1976800e+000  2.1976800e+000  2.1976800e+000 
 2.1994429e+000  0.0000000e+000  0.0000000e+000  0.0000000e+000  0.0000000e+000  2.1820619e+000  2.1820619e+000  2.1820619e+000 
 2.3035820e+000  0.0000000e+000  0.0000000e+000  0.0000000e+000  0.0000000e+000  2.1660802e+000  2.1660802e+000  2.1660802e+000 
 2.4118860e+000  0.0000000e+000  0.0000000e+000  0.0000000e+000  0.0000000e+000  2.1497216e+000  2.1497216e+000  2.1497216e+000 
 2.5245199e+000  0.0000000e+000  0.0000000e+000  0.0000000e+000  0.0000000e+000  2.1329722e+000  2.1329722e+000  2.1329722e+000 
 2.6416600e+000  0.0000000e+000  0.0000000e+000  0.0000000e+000  0.0000000e+000  2.1158156e+000  2.1158156e+000  2.1158156e+000 
 2.7634869e+000  0.0000000e+000  0.0000000e+000  0.0000000e+000  0.0000000e+000  2.0982361e+000  2.0982361e+000  2.0982361e+000 
 2.8901880e+000  0.0000000e+000  0.0000000e+000  0.0000000e+000  0.0000000e+000  2.0802126e+000  2.0802126e+000  2.0802126e+000 
 3.0219569e+000  0.0000000e+000  0.0000000e+000  0.0000000e+000  0.0000000e+000  2.0617275e+000  2.0617275e+000  2.0617275e+000 
 3.1589956e+000  0.0000000e+000  0.0000000e+000  0.0000000e+000  0.0000000e+000  2.0427589e+000  2.0427589e+000  2.0427589e+000 
 3.3015141e+000  0.0000000e+000  0.0000000e+000  0.0000000e+000  0.0000000e+000  2.0232832e+000  2.0232832e+000  2.0232832e+000 
 3.4497342e+000  0.0000000e+000  0.0000000e+000  0.0000000e+000  0.0000000e+000  2.0032732e+000  2.0032732e+000  2.0032732e+000 
 3.6038830e+000  0.0000000e+000  0.0000000e+000  0.0000000e+000  0.0000000e+000  1.9827037e+000  1.9827037e+000  1.9827037e+000 
 3.7641969e+000  0.0000000e+000  0.0000000e+000  0.0000000e+000  0.0000000e+000  1.9615440e+000  1.9615440e+000  1.9615440e+000 
 3.9309249e+000  0.0000000e+000  0.0000000e+000  0.0000000e+000  0.0000000e+000  1.9397639e+000  1.9397639e+000  1.9397639e+000 
 4.1043220e+000  0.0000000e+000  0.0000000e+000  0.0000000e+000  0.0000000e+000  1.9173285e+000  1.9173285e+000  1.9173285e+000 
 4.2846537e+000  0.0000000e+000  0.0000000e+000  0.0000000e+000  0.0000000e+000  1.8942035e+000  1.8942035e+000  1.8942035e+000 
 4.4721994e+000  0.0000000e+000  0.0000000e+000  0.0000000e+000  0.0000000e+000  1.8703504e+000  1.8703504e+000  1.8703504e+000 
 4.6672478e+000  0.0000000e+000  0.0000000e+000  0.0000000e+000  0.0000000e+000  1.8457296e+000  1.8457296e+000  1.8457296e+000 
 4.8700981e+000  0.0000000e+000  0.0000000e+000  0.0000000e+000  0.0000000e+000  1.8202993e+000  1.8202993e+000  1.8202993e+000 
 5.0810633e+000  0.0000000e+000  0.0000000e+000  0.0000000e+000  0.0000000e+000  1.7940150e+000  1.7940150e+000  1.7940150e+000 
 5.3004670e+000  0.0000000e+000  0.0000000e+000  0.0000000e+000  0.0000000e+000  1.7668320e+000  1.7668320e+000  1.7668320e+000 
 5.5286460e+000  0.0000000e+000  0.0000000e+000  0.0000000e+000  0.0000000e+000  1.7387017e+000  1.7387017e+000  1.7387017e+000 
 5.7659512e+000  0.0000000e+000  0.0000000e+000  0.0000000e+000  0.0000000e+000  1.7095743e+000  1.7095743e+000  1.7095743e+000 
 6.0127497e+000  0.0000000e+000  0.0000000e+000  0.0000000e+000  0.0000000e+000  1.6793989e+000  1.6793989e+000  1.6793989e+000 
 6.2694187e+000  0.0000000e+000  0.0000000e+000  0.0000000e+000  0.0000000e+000  1.6481216e+000  1.6481216e+000  1.6481216e+000 
 6.5363555e+000  0.0000000e+000  0.0000000e+000  0.0000000e+000  0.0000000e+000  1.6156876e+000  1.6156876e+000  1.6156876e+000 
 6.8139701e+000  0.0000000e+000  0.0000000e+000  0.0000000e+000  0.0000000e+000  1.5820398e+000  1.5820398e+000  1.5820398e+000 
 7.1026888e+000  0.0000000e+000  0.0000000e+000  0.0000000e+000  0.0000000e+000  1.5471199e+000  1.5471199e+000  1.5471199e+000 
 7.4029570e+000  0.0000000e+000  0.0000000e+000  0.0000000e+000  0.0000000e+000  1.5108676e+000  1.5108676e+000  1.5108676e+000 
 7.7152357e+000  0.0000000e+000  0.0000000e+000  0.0000000e+000  0.0000000e+000  1.4732213e+000  1.4732213e+000  1.4732213e+000 
 8.0400047e+000  0.0000000e+000  0.0000000e+000  0.0000000e+000  0.0000000e+000  1.4341168e+000  1.4341168e+000  1.4341168e+000 
 8.3777657e+000  0.0000000e+000  0.0000000e+000  0.0000000e+000  0.0000000e+000  1.3934888e+000  1.3934888e+000  1.3934888e+000 
 8.7290344e+000  0.0000000e+000  0.0000000e+000  0.0000000e+000  0.0000000e+000  1.3512703e+000  1.3512703e+000  1.3512703e+000 
 9.0943546e+000  0.0000000e+000  0.0000000e+000  0.0000000e+000  0.0000000e+000  1.3073915e+000  1.3073915e+000  1.3073915e+000 
 9.4742880e+000  0.0000000e+000  0.0000000e+000  0.0000000e+000  0.0000000e+000  1.2617810e+000  1.2617810e+000  1.2617810e+000 
 9.8694191e+000  0.0000000e+000  0.0000000e+000  0.0000000e+000  0.0000000e+000  1.2143652e+000  1.2143652e+000  1.2143652e+000 
 1.0280355e+001  0.0000000e+000  0.0000000e+000  0.0000000e+000  0.0000000e+000  1.1650685e+000  1.1650685e+000  1.1650685e+000 
 1.0707726e+001  0.0000000e+000  0.0000000e+000  0.0000000e+000  0.0000000e+000  1.1138127e+000  1.1138127e+000  1.1138127e+000 
 1.1152195e+001  0.0000000e+000  0.0000000e+000  0.0000000e+000  0.0000000e+000  1.0605154e+000  1.0605154e+000  1.0605154e+000 
 1.1614445e+001  0.0000000e+000  0.0000000e+000  0.0000000e+000  0.0000000e+000  1.0050939e+000  1.0050939e+000  1.0050939e+000 
 1.2095180e+001  0.0000000e+000  0.0000000e+000  0.0000000e+000  0.0000000e+000  9.4746161e-001  9.4746161e-001  9.4746161e-001 
 1.2595144e+001  0.0000000e+000  0.0000000e+000  0.0000000e+000  0.0000000e+000  8.8752878e-001  8.8752878e-001  8.8752878e-001 
 1.3115110e+001  0.0000000e+000  0.0000000e+000  0.0000000e+000  0.0000000e+000  8.2520127e-001  8.2520127e-001  8.2520127e-001 
 1.3655870e+001  0.0000000e+000  0.0000000e+000  0.0000000e+000  0.0000000e+000  7.6038420e-001  7.6038420e-001  7.6038420e-001 
 1.4218266e+001  0.0000000e+000  0.0000000e+000  0.0000000e+000  0.0000000e+000  6.9297475e-001  6.9297475e-001  6.9297475e-001 
 1.4803155e+001  0.0000000e+000  0.0000000e+000  0.0000000e+000  0.0000000e+000  6.2287104e-001  6.2287104e-001  6.2287104e-001 
 1.5411435e+001  0.0000000e+000  0.0000000e+000  0.0000000e+000  0.0000000e+000  5.4996395e-001  5.4996395e-001  5.4996395e-001 
 1.6044056e+001  0.0000000e+000  0.0000000e+000  0.0000000e+000  0.0000000e+000  4.7414070e-001  4.7414070e-001  4.7414070e-001 
 1.6701981e+001  0.0000000e+000  0.0000000e+000  0.0000000e+000  0.0000000e+000  3.9528444e-001  3.9528444e-001  3.9528444e-001 
 1.7386215e+001  0.0000000e+000  0.0000000e+000  0.0000000e+000  0.0000000e+000  3.1327540e-001  3.1327540e-001  3.1327540e-001 
 1.8097820e+001  0.0000000e+000  0.0000000e+000  0.0000000e+000  0.0000000e+000  2.2798544e-001  2.2798544e-001  2.2798544e-001 
 1.8837894e+001  0.0000000e+000  0.0000000e+000  0.0000000e+000  0.0000000e+000  1.3928398e-001  1.3928398e-001  1.3928398e-001 
 1.9607595e+001  0.0000000e+000  0.0000000e+000  0.0000000e+000  0.0000000e+000  4.7031011e-002  4.7031011e-002  4.7031011e-002 
 2.0000000e+001  0.0000000e+000  0.0000000e+000  0.0000000e+000  0.0000000e+000 -9.2925893e-007 -9.2925893e-007 -9.2925893e-007 
 0.0000000e+000  7.5606401e-003  1.0000000e+000  0.0000000e+000  1.0000000e+000  5.0011034e+000  5.0011034e+000  5.5011034e+000 
 8.0802897e-003  7.5606401e-003  8.4625185e-001  2.1002476e-001  8.7192464e-001  4.5320468e+000  4.5320468e+000  4.9121733e+000 
 2.4563596e-002  7.5606401e-003  6.2367904e-001  1.3187109e-001  6.3746804e-001  3.5751994e+000  3.5751994e+000  3.7783821e+000 
 4.1706085e-002  7.5606401e-003  4.4545764e-001  5.8041368e-002  4.4922301e-001  3.0990782e+000  3.0990782e+000  3.1999788e+000 
 5.9533693e-002  7.5606401e-003  3.3065236e-001  2.3451060e-002  3.3148292e-001  2.8960674e+000  2.8960674e+000  2.9510078e+000 
 7.8074649e-002  7.5606401e-003  2.6341295e-001  9.4862226e-003  2.6358372e-001  2.7957220e+000  2.7957220e+000  2.8304603e+000 
 9.7358689e-002  7.5606401e-003  2.2144838e-001  4.1315490e-003  2.2148691e-001  2.7378759e+000  2.7378759e+000  2.7624042e+000 
 1.1741330e-001  7.5606401e-003  1.9264214e-001  2.1524976e-003  1.9265416e-001  2.6997163e+000  2.6997163e+000  2.7182741e+000 
 1.3826905e-001  7.5606401e-003  1.7135699e-001  1.3804465e-003  1.7136255e-001  2.6712472e+000  2.6712472e+000  2.6859298e+000 
 1.5995945e-001  7.5606401e-003  1.5478553e-001  1.0107955e-003  1.5478882e-001  2.6483233e+000  2.6483233e+000  2.6603031e+000 
 1.8251725e-001  7.5606401e-003  1.4143044e-001  7.8541361e-004  1.4143261e-001  2.6290920e+000  2.6290920e+000  2.6390936e+000 
 2.0597759e-001  7.5606401e-003  1.3041908e-001  6.2652898e-004  1.3042058e-001  2.6125088e+000  2.6125088e+000  2.6210136e+000 
 2.3037639e-001  7.5606401e-003  1.2118881e-001  5.0707447e-004  1.2118987e-001  2.5978844e+000  2.5978844e+000  2.6052279e+000 
 2.5575179e-001  7.5606401e-003  1.1334924e-001  4.1488738e-004  1.1335000e-001  2.5847309e+000  2.5847309e+000  2.5911551e+000 
 2.8214192e-001  7.5606401e-003  1.0661912e-001  3.4246707e-004  1.0661967e-001  2.5726926e+000  2.5726926e+000  2.5783765e+000 
 3.0958712e-001  7.5606401e-003  1.0078923e-001  2.8505008e-004  1.0078963e-001  2.5614998e+000  2.5614998e+000  2.5665791e+000 
 3.3813170e-001  7.5606401e-003  9.5700823e-002  2.3880700e-004  9.5701121e-002  2.5509465e+000  2.5509465e+000  2.5555258e+000 
 3.6781764e-001  7.5606401e-003  9.1231756e-002  2.0124092e-004  9.1231979e-002  2.5408707e+000  2.5408707e+000  2.5450323e+000 
 3.9869076e-001  7.5606401e-003  8.7285616e-002  1.7047548e-004  8.7285779e-002  2.5311422e+000  2.5311422e+000  2.5349517e+000 
 4.3079910e-001  7.5606401e-003  8.3785124e-002  1.4504844e-004  8.3785251e-002  2.5216560e+000  2.5216560e+000  2.5251660e+000 
 4.6419144e-001  7.5606401e-003  8.0667652e-002  1.2399077e-004  8.0667749e-002  2.5123243e+000  2.5123243e+000  2.5155780e+000 
 4.9891889e-001  7.5606401e-003  7.7881590e-002  1.0635159e-004  7.7881664e-002  2.5030749e+000  2.5030749e+000  2.5061076e+000 
 5.3503573e-001  7.5606401e-003  7.5383522e-002  9.1592505e-005  7.5383574e-002  2.4938464e+000  2.4938464e+000  2.4966877e+000 
 5.7259679e-001  7.5606401e-003  7.3137045e-002  7.9151825e-005  7.3137090e-002  2.4845872e+000  2.4845872e+000  2.4872618e+000 
 6.1166000e-001  7.5606401e-003  7.1110778e-002  6.8684429e-005  7.1110807e-002  2.4752526e+000  2.4752526e+000  2.4777811e+000 
 6.5228653e-001  7.5606401e-003  6.9277771e-002  5.9802500e-005  6.9277793e-002  2.4658060e+000  2.4658060e+000  2.4682057e+000 
 6.9453812e-001  7.5606401e-003  6.7614570e-002  5.2333562e-005  6.7614593e-002  2.4562159e+000  2.4562159e+000  2.4585018e+000 
 7.3847967e-001  7.5606401e-003  6.6100687e-002  4.6000951e-005  6.6100702e-002  2.4464552e+000  2.4464552e+000  2.4486399e+000 
 7.8417897e-001  7.5606401e-003  6.4718001e-002  4.0601644e-005  6.4718015e-002  2.4365025e+000  2.4365025e+000  2.4385967e+000 
 8.3170545e-001  7.5606401e-003  6.3450798e-002  3.6035064e-005  6.3450806e-002  2.4263394e+000  2.4263394e+000  2.4283524e+000 
 8.8113320e-001  7.5606401e-003  6.2285114e-002  3.2141124e-005  6.2285122e-002  2.4159505e+000  2.4159505e+000  2.4178903e+000 
 9.3253934e-001  7.5606401e-003  6.1208736e-002  2.8787235e-005  6.1208744e-002  2.4053237e+000  2.4053237e+000  2.4071970e+000 
 9.8600167e-001  7.5606401e-003  6.0210872e-002  2.5880725e-005  6.0210876e-002  2.3944488e+000  2.3944488e+000  2.3962615e+000 
 1.0416015e+000  7.5606401e-003  5.9282243e-002  2.3402072e-005  5.9282247e-002  2.3833184e+000  2.3833184e+000  2.3850756e+000 
 1.0994256e+000  7.5606401e-003  5.8414780e-002  2.1228532e-005  5.8414783e-002  2.3719256e+000  2.3719256e+000  2.3736317e+000 
 1.1595621e+000  7.5606401e-003  5.7601456e-002  1.9350293e-005  5.7601459e-002  2.3602650e+000  2.3602650e+000  2.3619239e+000 
 1.2221041e+000  7.5606401e-003  5.6836300e-002  1.7651128e-005  5.6836303e-002  2.3483322e+000  2.3483322e+000  2.3499475e+000 
 1.2871475e+000  7.5606401e-003  5.6114186e-002  1.6200738e-005  5.6114189e-002  2.3361232e+000  2.3361232e+000  2.3376977e+000 
 1.3547925e+000  7.5606401e-003  5.5430893e-002  1.4853182e-005  5.5430897e-002  2.3236332e+000  2.3236332e+000  2.3251696e+000 
 1.4251450e+000  7.5606401e-003  5.4782704e-002  1.3724001e-005  5.4782704e-002  2.3108580e+000  2.3108580e+000  2.3123586e+000 
 1.4983110e+000  7.5606401e-003  5.4166727e-002  1.2637016e-005  5.4166727e-002  2.2977941e+000  2.2977941e+000  2.2992611e+000 
 1.5744021e+000  7.5606401e-003  5.3580426e-002  1.1631134e-005  5.3580426e-002  2.2844355e+000  2.2844355e+000  2.2858710e+000 
 1.6535370e+000  7.5606401e-003  5.3021651e-002  1.0715284e-005  5.3021651e-002  2.2707775e+000  2.2707775e+000  2.2721832e+000 
 1.7358396e+000  7.5606401e-003  5.2488644e-002  9.9261806e-006  5.2488644e-002  2.2568121e+000  2.2568121e+000  2.2581897e+000 
 1.8214340e+000  7.5606401e-003  5.1980078e-002  9.1281636e-006  5.1980078e-002  2.2425337e+000  2.2425337e+000  2.2438846e+000 
 1.9104514e+000  7.5606401e-003  5.1494721e-002  8.4677622e-006  5.1494721e-002  2.2279339e+000  2.2279339e+000  2.2292597e+000 
 2.0030293e+000  7.5606401e-003  5.1031623e-002  7.7920458e-006  5.1031623e-002  2.2130034e+000  2.2130034e+000  2.2143054e+000 
 2.0993104e+000  7.5606401e-003  5.0589964e-002  7.1696454e-006  5.0589964e-002  2.1977324e+000  2.1977324e+000  2.1990120e+000 
 2.1994429e+000  7.5606401e-003  5.0168913e-002  6.5478093e-006  5.0168913e-002  2.1821101e+000  2.1821101e+000  2.1833684e+000 
 2.3035820e+000  7.5606401e-003  4.9768001e-002  6.0534967e-006  4.9768001e-002  2.1661241e+000  2.1661241e+000  2.1673625e+000 
 2.4118860e+000  7.5606401e-003  4.9386743e-002  5.5434534e-006  4.9386743e-002  2.1497617e+000  2.1497617e+000  2.1509812e+000 
 2.5245199e+000  7.5606401e-003  4.9024627e-002  5.0804738e-006  4.9024627e-002  2.1330087e+000  2.1330087e+000  2.1342103e+000 
 2.6416600e+000  7.5606401e-003  4.8681434e-002  4.5923871e-006  4.8681434e-002  2.1158490e+000  2.1158490e+000  2.1170340e+000 
 2.7634869e+000  7.5606401e-003  4.8356757e-002  4.2303286e-006  4.8356757e-002  2.0982661e+000  2.0982661e+000  2.0994353e+000 
 2.8901880e+000  7.5606401e-003  4.8050337e-002  3.8167423e-006  4.8050337e-002  2.0802400e+000  2.0802400e+000  2.0813944e+000 
 3.0219569e+000  7.5606401e-003  4.7761872e-002  3.4382242e-006  4.7761872e-002  2.0617523e+000  2.0617523e+000  2.0628929e+000 
 3.1589956e+000  7.5606401e-003  4.7491122e-002  3.1278898e-006  4.7491122e-002  2.0427814e+000  2.0427814e+000  2.0439091e+000 
 3.3015141e+000  7.5606401e-003  4.7237825e-002  2.8781208e-006  4.7237825e-002  2.0233030e+000  2.0233030e+000  2.0244188e+000 
 3.4497342e+000  7.5606401e-003  4.7001686e-002  2.5559038e-006  4.7001686e-002  2.0032911e+000  2.0032911e+000  2.0043957e+000 
 3.6038830e+000  7.5606401e-003  4.6782337e-002  2.2521622e-006  4.6782337e-002  1.9827197e+000  1.9827197e+000  1.9838140e+000 
 3.7641969e+000  7.5606401e-003  4.6579409e-002  2.0121940e-006  4.6579409e-002  1.9615582e+000  1.9615582e+000  1.9626430e+000 
 3.9309249e+000  7.5606401e-003  4.6392482e-002  1.7714488e-006  4.6392482e-002  1.9397763e+000  1.9397763e+000  1.9408524e+000 
 4.1043220e+000  7.5606401e-003  4.6221066e-002  1.5635944e-006  4.6221066e-002  1.9173394e+000  1.9173394e+000  1.9184077e+000 
 4.2846537e+000  7.5606401e-003  4.6064712e-002  1.3727736e-006  4.6064712e-002  1.8942132e+000  1.8942132e+000  1.8952742e+000 
 4.4721994e+000  7.5606401e-003  4.5922797e-002  1.1962048e-006  4.5922797e-002  1.8703587e+000  1.8703587e+000  1.8714131e+000 
 4.6672478e+000  7.5606401e-003  4.5794595e-002  1.0596337e-006  4.5794595e-002  1.8457367e+000  1.8457367e+000  1.8467853e+000 
 4.8700981e+000  7.5606401e-003  4.5679558e-002  8.9775045e-007  4.5679558e-002  1.8203055e+000  1.8203055e+000  1.8213488e+000 
 5.0810633e+000  7.5606401e-003  4.5576863e-002  7.6104135e-007  4.5576863e-002  1.7940204e+000  1.7940204e+000  1.7950591e+000 
 5.3004670e+000  7.5606401e-003  4.5485780e-002  6.3917287e-007  4.5485780e-002  1.7668365e+000  1.7668365e+000  1.7678710e+000 
 5.5286460e+000  7.5606401e-003  4.5405537e-002  5.5165697e-007  4.5405537e-002  1.7387055e+000  1.7387055e+000  1.7397363e+000 
 5.7659512e+000  7.5606401e-003  4.5335285e-002  4.6175094e-007  4.5335285e-002  1.7095776e+000  1.7095776e+000  1.7106053e+000 
 6.0127497e+000  7.5606401e-003  4.5274202e-002  3.9319715e-007  4.5274202e-002  1.6794015e+000  1.6794015e+000  1.6804264e+000 
 6.2694187e+000  7.5606401e-003  4.5221493e-002  3.0395302e-007  4.5221493e-002  1.6481239e+000  1.6481239e+000  1.6491463e+000 
 6.5363555e+000  7.5606401e-003  4.5176353e-002  2.7363973e-007  4.5176353e-002  1.6156894e+000  1.6156894e+000  1.6167098e+000 
 6.8139701e+000  7.5606401e-003  4.5138005e-002  2.1998646e-007  4.5138005e-002  1.5820413e+000  1.5820413e+000  1.5830600e+000 
 7.1026888e+000  7.5606401e-003  4.5105673e-002  1.7737470e-007  4.5105673e-002  1.5471210e+000  1.5471210e+000  1.5481383e+000 
 7.4029570e+000  7.5606401e-003  4.5078635e-002  1.5314995e-007  4.5078635e-002  1.5108685e+000  1.5108685e+000  1.5118846e+000 
 7.7152357e+000  7.5606401e-003  4.5056242e-002  1.0921984e-007  4.5056242e-002  1.4732220e+000  1.4732220e+000  1.4742371e+000 
 8.0400047e+000  7.5606401e-003  4.5037877e-002  9.3627840e-008  4.5037877e-002  1.4341174e+000  1.4341174e+000  1.4351317e+000 
 8.3777657e+000  7.5606401e-003  4.5022927e-002  8.0224424e-008  4.5022927e-002  1.3934892e+000  1.3934892e+000  1.3945028e+000 
 8.7290344e+000  7.5606401e-003  4.5010898e-002  3.5896033e-008  4.5010898e-002  1.3512707e+000  1.3512707e+000  1.3522837e+000 
 9.0943546e+000  7.5606401e-003  4.5001317e-002  3.7168412e-008  4.5001317e-002  1.3073918e+000  1.3073918e+000  1.3084043e+000 
 9.4742880e+000  7.5606401e-003  4.4993754e-002  2.4596419e-008  4.4993754e-002  1.2617812e+000  1.2617812e+000  1.2627934e+000 
 9.8694191e+000  7.5606401e-003  4.4987846e-002  4.0580776e-008  4.4987846e-002  1.2143654e+000  1.2143654e+000  1.2153773e+000 
 1.0280355e+001  7.5606401e-003  4.4983294e-002  3.2892942e-008  4.4983294e-002  1.1650686e+000  1.1650686e+000  1.1660804e+000 
 1.0707726e+001  7.5606401e-003  4.4979841e-002  4.0384830e-008  4.4979841e-002  1.1138127e+000  1.1138127e+000  1.1148243e+000 
 1.1152195e+001  7.5606401e-003  4.4977229e-002  2.1765690e-008  4.4977229e-002  1.0605154e+000  1.0605154e+000  1.0615269e+000 
 1.1614445e+001  7.5606401e-003  4.4975299e-002  2.2859846e-008  4.4975299e-002  1.0050939e+000  1.0050939e+000  1.0061053e+000 
 1.2095180e+001  7.5606401e-003  4.4973865e-002 -2.1577455e-009  4.4973865e-002  9.4746166e-001  9.4746166e-001  9.4847298e-001 
 1.2595144e+001  7.5606401e-003  4.4972852e-002 -2.1315139e-009  4.4972852e-002  8.8752884e-001  8.8752884e-001  8.8854009e-001 
 1.3115110e+001  7.5606401e-003  4.4972122e-002  4.7263505e-008  4.4972122e-002  8.2520115e-001  8.2520115e-001  8.2621241e-001 
 1.3655870e+001  7.5606401e-003  4.4971615e-002  7.8911590e-008  4.4971615e-002  7.6038396e-001  7.6038396e-001  7.6139522e-001 
 1.4218266e+001  7.5606401e-003  4.4971265e-002  6.7773442e-008  4.4971265e-002  6.9297451e-001  6.9297451e-001  6.9398570e-001 
 1.4803155e+001  7.5606401e-003  4.4971008e-002  6.1833575e-008  4.4971008e-002  6.2287080e-001  6.2287080e-001  6.2388200e-001 
 1.5411435e+001  7.5606401e-003  4.4970848e-002  1.1437469e-007  4.4970848e-002  5.4996359e-001  5.4996359e-001  5.5097479e-001 
 1.6044056e+001  7.5606401e-003  4.4970751e-002  6.1449029e-008  4.4970751e-002  4.7414050e-001  4.7414050e-001  4.7515169e-001 
 1.6701981e+001  7.5606401e-003  4.4970691e-002  1.0826744e-007  4.4970691e-002  3.9528409e-001  3.9528409e-001  3.9629528e-001 
 1.7386215e+001  7.5606401e-003  4.4970635e-002  6.9357455e-008  4.4970635e-002  3.1327516e-001  3.1327516e-001  3.1428635e-001 
 1.8097820e+001  7.5606401e-003  4.4970613e-002  2.9957238e-008  4.4970613e-002  2.2798532e-001  2.2798532e-001  2.2899650e-001 
 1.8837894e+001  7.5606401e-003  4.4970594e-002  1.9945576e-009  4.4970594e-002  1.3928398e-001  1.3928398e-001  1.4029516e-001 
 1.9607595e+001  7.5606401e-003  4.4970579e-002  9.9228636e-008  4.4970579e-002  4.7031093e-002  4.7031093e-002  4.8042271e-002 
 2.0000000e+001  7.5606401e-003  4.4970583e-002  9.3628287e-008  4.4970583e-002  0.0000000e+000  0.0000000e+000  1.0111767e-003 
 0.0000000e+000  2.3059964e-002  1.0000000e+000  0.0000000e+000  1.0000000e+000  3.9293556e+000  3.9293556e+000  4.4293556e+000 
 8.0802897e-003  2.3059964e-002  1.0550719e+000  2.2075258e-001  1.0779186e+000  3.7381024e+000  3.7381024e+000  4.3190565e+000 
 2.4563596e-002  2.3059964e-002  1.0509474e+000  2.7403072e-001  1.0860863e+000  3.3479574e+000  3.3479574e+000  3.9377491e+000 
 4.1706085e-002  2.3059964e-002  9.4886863e-001  2.0073844e-001  9.6986991e-001  3.1016622e+000  3.1016622e+000  3.5719860e+000 
 5.9533693e-002  2.3059964e-002  8.2487518e-001  1.2942234e-001  8.3496660e-001  2.9524035e+000  2.9524035e+000  3.3009882e+000 
 7.8074649e-002  2.3059964e-002  7.1509016e-001  8.2181640e-002  7.1979702e-001  2.8519468e+000  2.8519468e+000  3.1110008e+000 
 9.7358689e-002  2.3059964e-002  6.2610620e-001  5.4048844e-002  6.2843478e-001  2.7820656e+000  2.7820656e+000  2.9795308e+000 
 1.1741330e-001  2.3059964e-002  5.5551285e-001  3.7530746e-002  5.5677921e-001  2.7323124e+000  2.7323124e+000  2.8873141e+000 
 1.3826905e-001  2.3059964e-002  4.9933693e-001  2.7411377e-002  5.0008875e-001  2.6952670e+000  2.6952670e+000  2.8203113e+000 
 1.5995945e-001  2.3059964e-002  4.5398051e-001  2.0804672e-002  4.5445696e-001  2.6664073e+000  2.6664073e+000  2.7696729e+000 
 1.8251725e-001  2.3059964e-002  4.1671827e-001  1.6235944e-002  4.1703445e-001  2.6430588e+000  2.6430588e+000  2.7300177e+000 
 2.0597759e-001  2.3059964e-002  3.8561231e-001  1.2934833e-002  3.8582918e-001  2.6235428e+000  2.6235428e+000  2.6979749e+000 
 2.3037639e-001  2.3059964e-002  3.5929057e-001  1.0470247e-002  3.5944310e-001  2.6067629e+000  2.6067629e+000  2.6713626e+000 
 2.5575179e-001  2.3059964e-002  3.3676112e-001  8.5841045e-003  3.3687049e-001  2.5919800e+000  2.5919800e+000  2.6487207e+000 
 2.8214192e-001  2.3059964e-002  3.1729370e-001  7.1109990e-003  3.1737337e-001  2.5786800e+000  2.5786800e+000  2.6290429e+000 
 3.0958712e-001  2.3059964e-002  3.0033693e-001  5.9414785e-003  3.0039570e-001  2.5664928e+000  2.5664928e+000  2.6116116e+000 
 3.3813170e-001  2.3059964e-002  2.8546640e-001  4.9997498e-003  2.8551018e-001  2.5551422e+000  2.5551422e+000  2.5959003e+000 
 3.6781764e-001  2.3059964e-002  2.7235204e-001  4.2322930e-003  2.7238491e-001  2.5444188e+000  2.5444188e+000  2.5815156e+000 
 3.9869076e-001  2.3059964e-002  2.6073050e-001  3.6009231e-003  2.6075536e-001  2.5341592e+000  2.5341592e+000  2.5681558e+000 
 4.3079910e-001  2.3059964e-002  2.5038889e-001  3.0770807e-003  2.5040779e-001  2.5242326e+000  2.5242326e+000  2.5555847e+000 
 4.6419144e-001  2.3059964e-002  2.4115345e-001  2.6393270e-003  2.4116789e-001  2.5145335e+000  2.5145335e+000  2.5436144e+000 
 4.9891889e-001  2.3059964e-002  2.3287961e-001  2.2715870e-003  2.3289068e-001  2.5049758e+000  2.5049758e+000  2.5320947e+000 
 5.3503573e-001  2.3059964e-002  2.2544551e-001  1.9612205e-003  2.2545403e-001  2.4954870e+000  2.4954870e+000  2.5209017e+000 
 5.7259679e-001  2.3059964e-002  2.1874791e-001  1.6983174e-003  2.1875450e-001  2.4860070e+000  2.4860070e+000  2.5099337e+000 
 6.1166000e-001  2.3059964e-002  2.1269782e-001  1.4750556e-003  2.1270293e-001  2.4764853e+000  2.4764853e+000  2.4991064e+000 