 VARIABLES = "X", "Y", "P", "Vx", "Vy", "GradPx", "GradPy", "DivV", "RotV", "LaplacianP", "DivV_err", "RotV_err", "LapP_error", "GradPx_err", "GradPy_err"
 ZONE I=         154 , J=          41 , DATAPACKING=BLOCK, VARLOCATION=([3-20]=CELLCENTERED)
     0.0000000     0.0013097     0.0026390     0.0039882     0.0053577     0.0067478     0.0081586     0.0095907     0.0110442     0.0125195     0.0140170     0.0155369     0.0170796     0.0186455     0.0202348     0.0218480     0.0234854     0.0251473     0.0268342     0.0285464     0.0302843     0.0320482     0.0338386     0.0356558     0.0375004     0.0393725     0.0412728     0.0432015     0.0451592     0.0471463     0.0491631     0.0512102     0.0532881     0.0553971     0.0575377     0.0597104     0.0619157     0.0641541     0.0664261     0.0687322     0.0710728     0.0734486     0.0758599     0.0783075     0.0807918     0.0833133     0.0858727     0.0884705     0.0911072     0.0937835     0.0964999     0.0992571     0.1020556     0.1048961     0.1077792     0.1107056     0.1136758     0.1166906     0.1197507     0.1228566     0.1260091     0.1292090     0.1324568     0.1357533     0.1390993     0.1424954     0.1459425     0.1494413     0.1529926     0.1565972     0.1602558     0.1639693     0.1677385     0.1715642     0.1754474     0.1793887     0.1833892     0.1874497     0.1915711     0.1957544     0.2000000     0.2010845     0.2040898     0.2083592     0.2134354     0.2190156     0.2249177     0.2310351     0.2372888     0.2436249     0.2499961     0.2563673     0.2627033     0.2689610     0.2750783     0.2809806     0.2865607     0.2916369     0.2959064     0.2989140
     0.3000000     0.3062500     0.3125000     0.3187500     0.3250000     0.3312500     0.3375000     0.3437500     0.3500000     0.3510845     0.3540898     0.3583592     0.3634354     0.3690155     0.3749177     0.3810351     0.3872889     0.3936249     0.3999961     0.4063673     0.4127033     0.4189610     0.4250783     0.4309806     0.4365607     0.4416369     0.4459064     0.4489140     0.4500000     0.4560000     0.4620000     0.4680000     0.4740000     0.4800000     0.4860000     0.4920000     0.4980000     0.5040000     0.5100000     0.5160000     0.5220000     0.5280000     0.5340000     0.5400000     0.5460001     0.5520000     0.5580000     0.5640001     0.5700001     0.5760000     0.5820000     0.5880001     0.5940000     0.6000000     0.0000000     0.0013097     0.0026391     0.0039883     0.0053579     0.0067479     0.0081588     0.0095908     0.0110444     0.0125197     0.0140172     0.0155371     0.0170798     0.0186456     0.0202350     0.0218482     0.0234856     0.0251475     0.0268344     0.0285466     0.0302844     0.0320484     0.0338387     0.0356560     0.0375005     0.0393727     0.0412729     0.0432017     0.0451594     0.0471464     0.0491633     0.0512104     0.0532882     0.0553972     0.0575378     0.0597105     0.0619159     0.0641543     0.0664263     0.0687323     0.0710729     0.0734487     0.0758601     0.0783076     0.0807919     0.0833134
     0.0858728     0.0884706     0.0911073     0.0937836     0.0965000     0.0992572     0.1020557     0.1048962     0.1077793     0.1107057     0.1136759     0.1166907     0.1197508     0.1228567     0.1260092     0.1292090     0.1324569     0.1357534     0.1390993     0.1424955     0.1459426     0.1494414     0.1529927     0.1565972     0.1602558     0.1639692     0.1677382     0.1715634     0.1754454     0.1793840     0.1833778     0.1874212     0.1914952     0.1955219     0.1990775     0.2009627     0.2041295     0.2084321     0.2135088     0.2190809     0.2249724     0.2310774     0.2373176     0.2436395     0.2499961     0.2563528     0.2626746     0.2689188     0.2750238     0.2809152     0.2864871     0.2915627     0.2958615     0.2990087     0.3006701     0.3063595     0.3125257     0.3187564     0.3250000     0.3312436     0.3374743     0.3436405     0.3493302     0.3509897     0.3541347     0.3584334     0.3635091     0.3690810     0.3749723     0.3810773     0.3873177     0.3936394     0.3999961     0.4063528     0.4126746     0.4189188     0.4250238     0.4309152     0.4364870     0.4415630     0.4458626     0.4490139     0.4507081     0.4561215     0.4620296     0.4680083     0.4740025     0.4800007     0.4860002     0.4920000     0.4980000     0.5040000     0.5100000     0.5160000     0.5220000     0.5280000     0.5340000     0.5400000     0.5460001     0.5520000
     0.5580000     0.5640001     0.5700001     0.5760000     0.5820000     0.5880001     0.5940000     0.6000000     0.0000000     0.0013098     0.0026392     0.0039885     0.0053580     0.0067481     0.0081589     0.0095910     0.0110445     0.0125199     0.0140173     0.0155372     0.0170799     0.0186458     0.0202352     0.0218483     0.0234857     0.0251477     0.0268345     0.0285467     0.0302846     0.0320485     0.0338389     0.0356561     0.0375006     0.0393728     0.0412731     0.0432018     0.0451595     0.0471466     0.0491634     0.0512105     0.0532883     0.0553973     0.0575379     0.0597107     0.0619160     0.0641544     0.0664264     0.0687324     0.0710730     0.0734488     0.0758602     0.0783077     0.0807920     0.0833136     0.0858729     0.0884707     0.0911074     0.0937837     0.0965001     0.0992573     0.1020558     0.1048963     0.1077794     0.1107058     0.1136760     0.1166908     0.1197509     0.1228568     0.1260093     0.1292091     0.1324569     0.1357535     0.1390994     0.1424956     0.1459427     0.1494415     0.1529927     0.1565973     0.1602558     0.1639691     0.1677378     0.1715625     0.1754431     0.1793786     0.1833649     0.1873897     0.1914146     0.1953049     0.1985252     0.2008771     0.2041775     0.2085117     0.2135886     0.2191520     0.2250318     0.2311234     0.2373490     0.2436553     0.2499962     0.2563370
     0.2626433     0.2688728     0.2749643     0.2808441     0.2864071     0.2914819     0.2958087     0.2990775     0.3011438     0.3064710     0.3125540     0.3187637     0.3250000     0.3312363     0.3374460     0.3435290     0.3488567     0.3509208     0.3541875     0.3585143     0.3635891     0.3691521     0.3750318     0.3811234     0.3873490     0.3936553     0.3999962     0.4063370     0.4126433     0.4188728     0.4249643     0.4308441     0.4364071     0.4414823     0.4458108     0.4490863     0.4511983     0.4562442     0.4620622     0.4680177     0.4740053     0.4800016     0.4860004     0.4920001     0.4980000     0.5040000     0.5100000     0.5160000     0.5220000     0.5280000     0.5340000     0.5400000     0.5460001     0.5520000     0.5580000     0.5640001     0.5700001     0.5760000     0.5820001     0.5880001     0.5940000     0.6000000     0.0000000     0.0013098     0.0026393     0.0039886     0.0053581     0.0067482     0.0081591     0.0095912     0.0110447     0.0125200     0.0140175     0.0155374     0.0170801     0.0186460     0.0202353     0.0218485     0.0234859     0.0251478     0.0268347     0.0285469     0.0302847     0.0320487     0.0338391     0.0356563     0.0375008     0.0393730     0.0412732     0.0432020     0.0451597     0.0471467     0.0491636     0.0512107     0.0532885     0.0553975     0.0575381     0.0597108     0.0619161     0.0641545
     0.0664265     0.0687325     0.0710732     0.0734489     0.0758603     0.0783079     0.0807921     0.0833137     0.0858731     0.0884708     0.0911075     0.0937838     0.0965002     0.0992574     0.1020559     0.1048964     0.1077795     0.1107059     0.1136761     0.1166909     0.1197510     0.1228569     0.1260094     0.1292093     0.1324570     0.1357536     0.1390995     0.1424957     0.1459428     0.1494416     0.1529928     0.1565973     0.1602558     0.1639689     0.1677373     0.1715613     0.1754403     0.1793722     0.1833501     0.1873543     0.1913283     0.1950953     0.1981196     0.2008130     0.2042333     0.2085984     0.2136754     0.2192295     0.2250967     0.2311737     0.2373832     0.2436727     0.2499962     0.2563198     0.2626092     0.2688226     0.2748995     0.2807666     0.2863201     0.2913939     0.2957482     0.2991282     0.3015149     0.3065868     0.3125857     0.3187721     0.3250000     0.3312279     0.3374143     0.3434133     0.3484858     0.3508700     0.3542481     0.3586023     0.3636762     0.3692296     0.3750966     0.3811736     0.3873833     0.3936726     0.3999962     0.4063198     0.4126092     0.4188226     0.4248995     0.4307667     0.4363201     0.4413945     0.4457512     0.4491401     0.4515788     0.4563707     0.4620986     0.4680286     0.4740086     0.4800026     0.4860008     0.4920002     0.4980000     0.5040000
     0.5100000     0.5160000     0.5220000     0.5280000     0.5340000     0.5400000     0.5460001     0.5520000     0.5580000     0.5640001     0.5700001     0.5760000     0.5820000     0.5880001     0.5940000     0.6000000     0.0000000     0.0013099     0.0026394     0.0039887     0.0053583     0.0067484     0.0081593     0.0095913     0.0110449     0.0125202     0.0140177     0.0155376     0.0170803     0.0186462     0.0202355     0.0218487     0.0234861     0.0251480     0.0268349     0.0285471     0.0302849     0.0320488     0.0338392     0.0356565     0.0375010     0.0393731     0.0412734     0.0432021     0.0451598     0.0471469     0.0491637     0.0512108     0.0532886     0.0553976     0.0575382     0.0597109     0.0619163     0.0641547     0.0664267     0.0687327     0.0710733     0.0734491     0.0758605     0.0783080     0.0807923     0.0833138     0.0858732     0.0884709     0.0911077     0.0937839     0.0965004     0.0992575     0.1020560     0.1048965     0.1077797     0.1107060     0.1136763     0.1166911     0.1197511     0.1228570     0.1260096     0.1292094     0.1324572     0.1357537     0.1390996     0.1424958     0.1459429     0.1494416     0.1529929     0.1565973     0.1602557     0.1639687     0.1677367     0.1715598     0.1754370     0.1793646     0.1833327     0.1873142     0.1912355     0.1948916     0.1977967     0.2007648     0.2042971     0.2086929
     0.2137699     0.2193140     0.2251675     0.2312285     0.2374207     0.2436916     0.2499962     0.2563009     0.2625719     0.2687677     0.2748288     0.2806822     0.2862254     0.2912982     0.2956800     0.2991645     0.3018209     0.3067075     0.3126216     0.3187819     0.3250000     0.3312181     0.3373785     0.3432927     0.3481799     0.3508337     0.3543163     0.3586981     0.3637709     0.3693141     0.3751675     0.3812285     0.3874207     0.3936916     0.3999963     0.4063009     0.4125719     0.4187677     0.4248288     0.4306822     0.4362254     0.4412990     0.4456839     0.4491791     0.4518908     0.4565016     0.4621395     0.4680413     0.4740126     0.4800039     0.4860012     0.4920003     0.4980001     0.5040000     0.5100000     0.5160000     0.5220000     0.5280000     0.5340000     0.5400000     0.5460001     0.5520000     0.5580000     0.5640001     0.5700001     0.5760001     0.5820001     0.5880001     0.5940000     0.6000000     0.0000000     0.0013099     0.0026395     0.0039888     0.0053584     0.0067485     0.0081594     0.0095915     0.0110451     0.0125204     0.0140179     0.0155378     0.0170805     0.0186464     0.0202357     0.0218489     0.0234863     0.0251482     0.0268351     0.0285472     0.0302851     0.0320490     0.0338394     0.0356566     0.0375011     0.0393733     0.0412736     0.0432023     0.0451600     0.0471470
     0.0491639     0.0512110     0.0532888     0.0553978     0.0575384     0.0597111     0.0619164     0.0641548     0.0664268     0.0687328     0.0710735     0.0734492     0.0758606     0.0783082     0.0807924     0.0833140     0.0858733     0.0884711     0.0911078     0.0937841     0.0965005     0.0992577     0.1020562     0.1048967     0.1077798     0.1107061     0.1136764     0.1166912     0.1197512     0.1228572     0.1260097     0.1292095     0.1324573     0.1357538     0.1390998     0.1424959     0.1459430     0.1494417     0.1529930     0.1565974     0.1602557     0.1639684     0.1677359     0.1715580     0.1754328     0.1793553     0.1833121     0.1872686     0.1911360     0.1946942     0.1975294     0.2007300     0.2043687     0.2087958     0.2138728     0.2194062     0.2252448     0.2312885     0.2374616     0.2437124     0.2499963     0.2562803     0.2625311     0.2687078     0.2747515     0.2805900     0.2861222     0.2911940     0.2956039     0.2991883     0.3020803     0.3068329     0.3126622     0.3187936     0.3250000     0.3312065     0.3373379     0.3431674     0.3479206     0.3508098     0.3543924     0.3588023     0.3638741     0.3694064     0.3752448     0.3812885     0.3874616     0.3937123     0.3999963     0.4062803     0.4125311     0.4187078     0.4247515     0.4305900     0.4361223     0.4411951     0.4456087     0.4492055     0.4521544     0.4566366
     0.4621857     0.4680565     0.4740176     0.4800055     0.4860017     0.4920005     0.4980001     0.5040000     0.5100000     0.5160000     0.5220000     0.5280000     0.5340000     0.5400000     0.5460001     0.5520000     0.5580000     0.5640001     0.5700001     0.5760001     0.5820000     0.5880001     0.5940000     0.6000000     0.0000000     0.0013100     0.0026395     0.0039890     0.0053586     0.0067487     0.0081596     0.0095917     0.0110453     0.0125206     0.0140181     0.0155380     0.0170807     0.0186466     0.0202359     0.0218491     0.0234865     0.0251484     0.0268353     0.0285474     0.0302853     0.0320492     0.0338396     0.0356568     0.0375013     0.0393735     0.0412737     0.0432025     0.0451602     0.0471472     0.0491641     0.0512112     0.0532890     0.0553980     0.0575386     0.0597113     0.0619166     0.0641550     0.0664270     0.0687330     0.0710737     0.0734494     0.0758608     0.0783083     0.0807926     0.0833141     0.0858735     0.0884713     0.0911080     0.0937842     0.0965007     0.0992578     0.1020563     0.1048968     0.1077799     0.1107063     0.1136765     0.1166913     0.1197514     0.1228573     0.1260098     0.1292096     0.1324574     0.1357539     0.1390999     0.1424960     0.1459431     0.1494418     0.1529930     0.1565974     0.1602555     0.1639680     0.1677349     0.1715556     0.1754276     0.1793440
     0.1832878     0.1872170     0.1910300     0.1945040     0.1973036     0.2007074     0.2044487     0.2089077     0.2139850     0.2195069     0.2253294     0.2313542     0.2375063     0.2437350     0.2499963     0.2562578     0.2624864     0.2686422     0.2746670     0.2804893     0.2860098     0.2910808     0.2955195     0.2992007     0.3023034     0.3069621     0.3127080     0.3188073     0.3250000     0.3311927     0.3372921     0.3430383     0.3476976     0.3507973     0.3544768     0.3589156     0.3639866     0.3695071     0.3753294     0.3813542     0.3875063     0.3937350     0.3999963     0.4062578     0.4124864     0.4186422     0.4246670     0.4304893     0.4360100     0.4410821     0.4455251     0.4492201     0.4523805     0.4567747     0.4622378     0.4680744     0.4740237     0.4800076     0.4860024     0.4920007     0.4980002     0.5040000     0.5100000     0.5160000     0.5220000     0.5280000     0.5340000     0.5400000     0.5460001     0.5520000     0.5580000     0.5640001     0.5700001     0.5760001     0.5820001     0.5880001     0.5940000     0.6000000     0.0000000     0.0013100     0.0026396     0.0039891     0.0053587     0.0067489     0.0081598     0.0095919     0.0110455     0.0125208     0.0140183     0.0155382     0.0170809     0.0186468     0.0202361     0.0218493     0.0234867     0.0251486     0.0268355     0.0285477     0.0302855     0.0320494
     0.0338398     0.0356571     0.0375015     0.0393737     0.0412740     0.0432027     0.0451604     0.0471474     0.0491643     0.0512114     0.0532892     0.0553982     0.0575388     0.0597115     0.0619168     0.0641552     0.0664272     0.0687332     0.0710738     0.0734496     0.0758609     0.0783085     0.0807928     0.0833143     0.0858737     0.0884714     0.0911081     0.0937844     0.0965008     0.0992580     0.1020565     0.1048970     0.1077801     0.1107064     0.1136767     0.1166915     0.1197515     0.1228574     0.1260100     0.1292098     0.1324576     0.1357541     0.1391000     0.1424962     0.1459432     0.1494419     0.1529931     0.1565974     0.1602553     0.1639674     0.1677335     0.1715526     0.1754211     0.1793303     0.1832594     0.1871589     0.1909184     0.1943222     0.1971114     0.2006965     0.2045375     0.2090294     0.2141072     0.2196169     0.2254218     0.2314260     0.2375553     0.2437598     0.2499964     0.2562331     0.2624376     0.2685705     0.2745746     0.2803793     0.2858873     0.2909577     0.2954262     0.2992018     0.3024960     0.3070937     0.3127594     0.3188235     0.3250000     0.3311765     0.3372407     0.3429067     0.3475051     0.3507961     0.3545701     0.3590387     0.3641092     0.3696172     0.3754219     0.3814259     0.3875553     0.3937598     0.3999964     0.4062331     0.4124376     0.4185705
     0.4245746     0.4303794     0.4358875     0.4409593     0.4454328     0.4492235     0.4525753     0.4569143     0.4622958     0.4680956     0.4740312     0.4800102     0.4860032     0.4920010     0.4980003     0.5040000     0.5100000     0.5160000     0.5220000     0.5280000     0.5340000     0.5400000     0.5460001     0.5520000     0.5580000     0.5640001     0.5700001     0.5760000     0.5820001     0.5880001     0.5940000     0.6000000     0.0000000     0.0013101     0.0026397     0.0039892     0.0053589     0.0067490     0.0081600     0.0095921     0.0110457     0.0125210     0.0140185     0.0155384     0.0170811     0.0186470     0.0202364     0.0218495     0.0234869     0.0251488     0.0268357     0.0285479     0.0302857     0.0320497     0.0338400     0.0356573     0.0375018     0.0393739     0.0412742     0.0432029     0.0451606     0.0471476     0.0491645     0.0512116     0.0532894     0.0553984     0.0575390     0.0597117     0.0619170     0.0641554     0.0664274     0.0687334     0.0710740     0.0734498     0.0758611     0.0783087     0.0807930     0.0833145     0.0858738     0.0884716     0.0911083     0.0937846     0.0965010     0.0992582     0.1020567     0.1048972     0.1077803     0.1107066     0.1136768     0.1166916     0.1197517     0.1228576     0.1260101     0.1292099     0.1324577     0.1357542     0.1391002     0.1424963     0.1459433     0.1494421
     0.1529931     0.1565973     0.1602550     0.1639666     0.1677317     0.1715487     0.1754131     0.1793139     0.1832263     0.1870945     0.1908025     0.1941504     0.1969484     0.2006975     0.2046360     0.2091618     0.2142404     0.2197369     0.2255229     0.2315045     0.2376089     0.2437870     0.2499965     0.2562061     0.2623841     0.2684920     0.2744736     0.2802593     0.2857539     0.2908240     0.2953236     0.2991917     0.3026615     0.3072257     0.3128164     0.3188424     0.3250000     0.3311577     0.3371837     0.3427747     0.3473396     0.3508062     0.3546728     0.3591725     0.3642426     0.3697373     0.3755229     0.3815044     0.3876089     0.3937870     0.3999965     0.4062061     0.4123841     0.4184920     0.4244736     0.4302593     0.4357542     0.4408258     0.4453309     0.4492154     0.4527424     0.4570536     0.4623598     0.4681204     0.4740402     0.4800133     0.4860044     0.4920014     0.4980004     0.5040001     0.5100000     0.5160000     0.5220000     0.5280000     0.5340000     0.5400000     0.5460001     0.5520000     0.5580000     0.5640001     0.5700001     0.5760001     0.5820001     0.5880001     0.5940000     0.6000000     0.0000000     0.0013101     0.0026398     0.0039893     0.0053590     0.0067492     0.0081602     0.0095923     0.0110459     0.0125213     0.0140187     0.0155387     0.0170814     0.0186473
     0.0202366     0.0218498     0.0234872     0.0251491     0.0268360     0.0285481     0.0302860     0.0320499     0.0338403     0.0356575     0.0375020     0.0393741     0.0412744     0.0432032     0.0451608     0.0471479     0.0491647     0.0512118     0.0532896     0.0553986     0.0575392     0.0597119     0.0619172     0.0641556     0.0664276     0.0687336     0.0710742     0.0734500     0.0758613     0.0783089     0.0807932     0.0833147     0.0858740     0.0884718     0.0911085     0.0937848     0.0965012     0.0992583     0.1020569     0.1048973     0.1077804     0.1107068     0.1136770     0.1166918     0.1197518     0.1228578     0.1260103     0.1292101     0.1324579     0.1357544     0.1391003     0.1424965     0.1459435     0.1494422     0.1529932     0.1565972     0.1602546     0.1639656     0.1677295     0.1715439     0.1754033     0.1792945     0.1831885     0.1870243     0.1906842     0.1939904     0.1968119     0.2007110     0.2047449     0.2093058     0.2143854     0.2198679     0.2256333     0.2315903     0.2376675     0.2438167     0.2499966     0.2561765     0.2623257     0.2684063     0.2743632     0.2801283     0.2856087     0.2906787     0.2952105     0.2991695     0.3028017     0.3073560     0.3128785     0.3188641     0.3250000     0.3311360     0.3371217     0.3426444     0.3471994     0.3508283     0.3547859     0.3593179     0.3643879     0.3698683
     0.3756333     0.3815903     0.3876675     0.3938167     0.3999965     0.4061765     0.4123257     0.4184062     0.4243633     0.4301284     0.4356090     0.4406808     0.4452186     0.4491951     0.4528837     0.4571901     0.4624293     0.4681490     0.4740511     0.4800173     0.4860058     0.4920018     0.4980006     0.5040001     0.5100000     0.5160000     0.5220000     0.5280000     0.5340000     0.5400000     0.5460001     0.5520000     0.5580000     0.5640001     0.5700001     0.5760000     0.5820001     0.5880001     0.5940000     0.6000000     0.0000000     0.0013102     0.0026399     0.0039895     0.0053592     0.0067494     0.0081604     0.0095925     0.0110461     0.0125215     0.0140190     0.0155389     0.0170817     0.0186475     0.0202369     0.0218500     0.0234874     0.0251493     0.0268362     0.0285484     0.0302862     0.0320502     0.0338405     0.0356578     0.0375023     0.0393744     0.0412747     0.0432034     0.0451611     0.0471481     0.0491650     0.0512121     0.0532898     0.0553988     0.0575394     0.0597121     0.0619174     0.0641559     0.0664278     0.0687338     0.0710745     0.0734502     0.0758616     0.0783091     0.0807934     0.0833149     0.0858743     0.0884720     0.0911087     0.0937850     0.0965014     0.0992586     0.1020571     0.1048975     0.1077806     0.1107070     0.1136772     0.1166920     0.1197520     0.1228580
     0.1260105     0.1292103     0.1324580     0.1357546     0.1391005     0.1424966     0.1459436     0.1494423     0.1529932     0.1565970     0.1602540     0.1639643     0.1677266     0.1715381     0.1753916     0.1792718     0.1831460     0.1869491     0.1905661     0.1938441     0.1967011     0.2007382     0.2048654     0.2094622     0.2145430     0.2200107     0.2257538     0.2316840     0.2377316     0.2438492     0.2499966     0.2561443     0.2622618     0.2683126     0.2742428     0.2799856     0.2854508     0.2905211     0.2950861     0.2991344     0.3029173     0.3074820     0.3129448     0.3188886     0.3250000     0.3311115     0.3370554     0.3425185     0.3470838     0.3508634     0.3549104     0.3594756     0.3645459     0.3700111     0.3757538     0.3816840     0.3877316     0.3938491     0.3999966     0.4061443     0.4122618     0.4183126     0.4242429     0.4299857     0.4354511     0.4405233     0.4450950     0.4491617     0.4529998     0.4573213     0.4625034     0.4681815     0.4740640     0.4800222     0.4860075     0.4920025     0.4980008     0.5040002     0.5100000     0.5160000     0.5220000     0.5280000     0.5340000     0.5400000     0.5460001     0.5520000     0.5580000     0.5640001     0.5700001     0.5760000     0.5820000     0.5880001     0.5940000     0.6000000     0.0000000     0.0013102     0.0026400     0.0039896     0.0053593     0.0067496
     0.0081606     0.0095928     0.0110464     0.0125218     0.0140193     0.0155392     0.0170819     0.0186478     0.0202371     0.0218503     0.0234877     0.0251496     0.0268365     0.0285487     0.0302865     0.0320504     0.0338408     0.0356580     0.0375025     0.0393747     0.0412749     0.0432037     0.0451613     0.0471484     0.0491652     0.0512123     0.0532901     0.0553991     0.0575397     0.0597124     0.0619177     0.0641561     0.0664281     0.0687341     0.0710747     0.0734505     0.0758618     0.0783094     0.0807936     0.0833151     0.0858745     0.0884722     0.0911090     0.0937852     0.0965016     0.0992588     0.1020573     0.1048978     0.1077809     0.1107072     0.1136774     0.1166922     0.1197522     0.1228582     0.1260107     0.1292105     0.1324583     0.1357547     0.1391007     0.1424968     0.1459437     0.1494423     0.1529931     0.1565967     0.1602533     0.1639626     0.1677231     0.1715310     0.1753779     0.1792459     0.1830992     0.1868706     0.1904508     0.1937138     0.1966157     0.2007805     0.2049986     0.2096320     0.2147143     0.2201661     0.2258851     0.2317863     0.2378015     0.2438846     0.2499967     0.2561090     0.2621921     0.2682104     0.2741116     0.2798302     0.2852794     0.2903500     0.2949492     0.2990850     0.3030081     0.3076006     0.3130141     0.3189156     0.3250000     0.3310845
     0.3369861     0.3423999     0.3469930     0.3509127     0.3550473     0.3596467     0.3647175     0.3701666     0.3758852     0.3817863     0.3878015     0.3938846     0.3999967     0.4061090     0.4121921     0.4182104     0.4241116     0.4298303     0.4352797     0.4403525     0.4449587     0.4491138     0.4530907     0.4574441     0.4625804     0.4682177     0.4740790     0.4800280     0.4860097     0.4920032     0.4980010     0.5040003     0.5100000     0.5160000     0.5220000     0.5280000     0.5340000     0.5400000     0.5460001     0.5520000     0.5580000     0.5640001     0.5700001     0.5760000     0.5820000     0.5880001     0.5940000     0.6000000     0.0000000     0.0013103     0.0026401     0.0039897     0.0053595     0.0067498     0.0081608     0.0095930     0.0110466     0.0125220     0.0140195     0.0155395     0.0170822     0.0186481     0.0202374     0.0218506     0.0234880     0.0251499     0.0268368     0.0285490     0.0302868     0.0320507     0.0338411     0.0356583     0.0375028     0.0393749     0.0412752     0.0432039     0.0451616     0.0471487     0.0491655     0.0512126     0.0532904     0.0553993     0.0575400     0.0597127     0.0619180     0.0641564     0.0664283     0.0687343     0.0710750     0.0734507     0.0758621     0.0783096     0.0807939     0.0833154     0.0858747     0.0884725     0.0911092     0.0937855     0.0965019     0.0992590
     0.1020575     0.1048980     0.1077811     0.1107074     0.1136777     0.1166924     0.1197525     0.1228584     0.1260109     0.1292107     0.1324585     0.1357549     0.1391009     0.1424969     0.1459439     0.1494424     0.1529931     0.1565963     0.1602523     0.1639605     0.1677188     0.1715226     0.1753620     0.1792170     0.1830490     0.1867907     0.1903418     0.1936020     0.1965565     0.2008397     0.2051461     0.2098164     0.2149001     0.2203350     0.2260281     0.2318977     0.2378776     0.2439232     0.2499968     0.2560706     0.2621161     0.2680991     0.2739687     0.2796614     0.2850934     0.2901647     0.2947986     0.2990198     0.3030733     0.3077089     0.3130845     0.3189448     0.3250000     0.3310553     0.3369157     0.3422917     0.3469278     0.3509780     0.3551980     0.3598322     0.3649035     0.3703355     0.3760281     0.3818977     0.3878776     0.3939232     0.3999968     0.4060706     0.4121161     0.4180991     0.4239688     0.4296615     0.4350938     0.4401673     0.4448087     0.4490497     0.4531556     0.4575556     0.4626584     0.4682570     0.4740961     0.4800349     0.4860123     0.4920042     0.4980014     0.5040004     0.5100001     0.5160000     0.5220000     0.5280000     0.5340000     0.5400000     0.5460001     0.5520000     0.5580000     0.5640001     0.5700001     0.5760001     0.5820000     0.5880001
     0.5940000     0.6000000     0.0000000     0.0013103     0.0026402     0.0039898     0.0053596     0.0067499     0.0081610     0.0095932     0.0110469     0.0125223     0.0140198     0.0155397     0.0170825     0.0186484     0.0202377     0.0218509     0.0234883     0.0251502     0.0268371     0.0285492     0.0302871     0.0320510     0.0338414     0.0356586     0.0375031     0.0393753     0.0412755     0.0432042     0.0451619     0.0471489     0.0491658     0.0512129     0.0532907     0.0553996     0.0575402     0.0597129     0.0619182     0.0641566     0.0664286     0.0687346     0.0710752     0.0734510     0.0758623     0.0783099     0.0807941     0.0833156     0.0858750     0.0884727     0.0911094     0.0937857     0.0965021     0.0992592     0.1020577     0.1048982     0.1077813     0.1107076     0.1136779     0.1166927     0.1197527     0.1228586     0.1260111     0.1292109     0.1324587     0.1357552     0.1391010     0.1424971     0.1459440     0.1494424     0.1529929     0.1565959     0.1602512     0.1639580     0.1677138     0.1715130     0.1753443     0.1791856     0.1829969     0.1867122     0.1902425     0.1935112     0.1965250     0.2009180     0.2053094     0.2100163     0.2151013     0.2205183     0.2261834     0.2320189     0.2379605     0.2439653     0.2499969     0.2560288     0.2620335     0.2679780     0.2738135     0.2794782     0.2848922     0.2899640