 VARIABLES = "X", "Y", "P", "Vx", "Vy", "GradPx", "GradPy", "DivV", "RotV", "LaplacianP", "DivV_err", "RotV_err", "LaplacianP_error", "GradPx_err", "GradPy_err"
 ZONE I=          41 , J=          41 , DATAPACKING=BLOCK, VARLOCATION=([3-20]=CELLCENTERED)
     0.0000000     0.0121965     0.0252467     0.0392104     0.0541515     0.0701386     0.0872448     0.1055484     0.1251332     0.1460890     0.1685117     0.1925040     0.2181758     0.2456446     0.2750362     0.3064852     0.3401356     0.3761415     0.4146680     0.4558912     0.5000000     0.5441088     0.5853320     0.6238585     0.6598644     0.6935148     0.7249638     0.7543554     0.7818242     0.8074960     0.8314883     0.8539110     0.8748668     0.8944516     0.9127552     0.9298614     0.9458485     0.9607896     0.9747533     0.9878035     1.0000000     0.0000000     0.0121965     0.0252467     0.0392104     0.0541515     0.0701386     0.0872448     0.1055484     0.1251332     0.1460890     0.1685117     0.1925040     0.2181758     0.2456446     0.2750362     0.3064852     0.3401356     0.3761415     0.4146680     0.4558912     0.5000000     0.5441088     0.5853320     0.6238585     0.6598644     0.6935148     0.7249638     0.7543554     0.7818242     0.8074960     0.8314883     0.8539110     0.8748668     0.8944516     0.9127552     0.9298614     0.9458485     0.9607896     0.9747533     0.9878035     1.0000000     0.0000000     0.0121965     0.0252467     0.0392104     0.0541515     0.0701386     0.0872448     0.1055484     0.1251332     0.1460890     0.1685117     0.1925040     0.2181758     0.2456446     0.2750362     0.3064852     0.3401356     0.3761415
     0.4146680     0.4558912     0.5000000     0.5441088     0.5853320     0.6238585     0.6598644     0.6935148     0.7249638     0.7543554     0.7818242     0.8074960     0.8314883     0.8539110     0.8748668     0.8944516     0.9127552     0.9298614     0.9458485     0.9607896     0.9747533     0.9878035     1.0000000     0.0000000     0.0121965     0.0252467     0.0392104     0.0541515     0.0701386     0.0872448     0.1055484     0.1251332     0.1460890     0.1685117     0.1925040     0.2181758     0.2456446     0.2750362     0.3064852     0.3401356     0.3761415     0.4146680     0.4558912     0.5000000     0.5441088     0.5853320     0.6238585     0.6598644     0.6935148     0.7249638     0.7543554     0.7818242     0.8074960     0.8314883     0.8539110     0.8748668     0.8944516     0.9127552     0.9298614     0.9458485     0.9607896     0.9747533     0.9878035     1.0000000     0.0000000     0.0121965     0.0252467     0.0392104     0.0541515     0.0701386     0.0872448     0.1055484     0.1251332     0.1460890     0.1685117     0.1925040     0.2181758     0.2456446     0.2750362     0.3064852     0.3401356     0.3761415     0.4146680     0.4558912     0.5000000     0.5441088     0.5853320     0.6238585     0.6598644     0.6935148     0.7249638     0.7543554     0.7818242     0.8074960     0.8314883     0.8539110     0.8748668     0.8944516     0.9127552     0.9298614
     0.9458485     0.9607896     0.9747533     0.9878035     1.0000000     0.0000000     0.0121965     0.0252467     0.0392104     0.0541515     0.0701386     0.0872448     0.1055484     0.1251332     0.1460890     0.1685117     0.1925040     0.2181758     0.2456446     0.2750362     0.3064852     0.3401356     0.3761415     0.4146680     0.4558912     0.5000000     0.5441088     0.5853320     0.6238585     0.6598644     0.6935148     0.7249638     0.7543554     0.7818242     0.8074960     0.8314883     0.8539110     0.8748668     0.8944516     0.9127552     0.9298614     0.9458485     0.9607896     0.9747533     0.9878035     1.0000000     0.0000000     0.0121965     0.0252467     0.0392104     0.0541515     0.0701386     0.0872448     0.1055484     0.1251332     0.1460890     0.1685117     0.1925040     0.2181758     0.2456446     0.2750362     0.3064852     0.3401356     0.3761415     0.4146680     0.4558912     0.5000000     0.5441088     0.5853320     0.6238585     0.6598644     0.6935148     0.7249638     0.7543554     0.7818242     0.8074960     0.8314883     0.8539110     0.8748668     0.8944516     0.9127552     0.9298614     0.9458485     0.9607896     0.9747533     0.9878035     1.0000000     0.0000000     0.0121965     0.0252467     0.0392104     0.0541515     0.0701386     0.0872448     0.1055484     0.1251332     0.1460890     0.1685117     0.1925040     0.2181758
     0.2456446     0.2750362     0.3064852     0.3401356     0.3761415     0.4146680     0.4558912     0.5000000     0.5441088     0.5853320     0.6238585     0.6598644     0.6935148     0.7249638     0.7543554     0.7818242     0.8074960     0.8314883     0.8539110     0.8748668     0.8944516     0.9127552     0.9298614     0.9458485     0.9607896     0.9747533     0.9878035     1.0000000     0.0000000     0.0121965     0.0252467     0.0392104     0.0541515     0.0701386     0.0872448     0.1055484     0.1251332     0.1460890     0.1685117     0.1925040     0.2181758     0.2456446     0.2750362     0.3064852     0.3401356     0.3761415     0.4146680     0.4558912     0.5000000     0.5441088     0.5853320     0.6238585     0.6598644     0.6935148     0.7249638     0.7543554     0.7818242     0.8074960     0.8314883     0.8539110     0.8748668     0.8944516     0.9127552     0.9298614     0.9458485     0.9607896     0.9747533     0.9878035     1.0000000     0.0000000     0.0121965     0.0252467     0.0392104     0.0541515     0.0701386     0.0872448     0.1055484     0.1251332     0.1460890     0.1685117     0.1925040     0.2181758     0.2456446     0.2750362     0.3064852     0.3401356     0.3761415     0.4146680     0.4558912     0.5000000     0.5441088     0.5853320     0.6238585     0.6598644     0.6935148     0.7249638     0.7543554     0.7818242     0.8074960     0.8314883
     0.8539110     0.8748668     0.8944516     0.9127552     0.9298614     0.9458485     0.9607896     0.9747533     0.9878035     1.0000000     0.0000000     0.0121965     0.0252467     0.0392104     0.0541515     0.0701386     0.0872448     0.1055484     0.1251332     0.1460890     0.1685117     0.1925040     0.2181758     0.2456446     0.2750362     0.3064852     0.3401356     0.3761415     0.4146680     0.4558912     0.5000000     0.5441088     0.5853320     0.6238585     0.6598644     0.6935148     0.7249638     0.7543554     0.7818242     0.8074960     0.8314883     0.8539110     0.8748668     0.8944516     0.9127552     0.9298614     0.9458485     0.9607896     0.9747533     0.9878035     1.0000000     0.0000000     0.0121965     0.0252467     0.0392104     0.0541515     0.0701386     0.0872448     0.1055484     0.1251332     0.1460890     0.1685117     0.1925040     0.2181758     0.2456446     0.2750362     0.3064852     0.3401356     0.3761415     0.4146680     0.4558912     0.5000000     0.5441088     0.5853320     0.6238585     0.6598644     0.6935148     0.7249638     0.7543554     0.7818242     0.8074960     0.8314883     0.8539110     0.8748668     0.8944516     0.9127552     0.9298614     0.9458485     0.9607896     0.9747533     0.9878035     1.0000000     0.0000000     0.0121965     0.0252467     0.0392104     0.0541515     0.0701386     0.0872448     0.1055484
     0.1251332     0.1460890     0.1685117     0.1925040     0.2181758     0.2456446     0.2750362     0.3064852     0.3401356     0.3761415     0.4146680     0.4558912     0.5000000     0.5441088     0.5853320     0.6238585     0.6598644     0.6935148     0.7249638     0.7543554     0.7818242     0.8074960     0.8314883     0.8539110     0.8748668     0.8944516     0.9127552     0.9298614     0.9458485     0.9607896     0.9747533     0.9878035     1.0000000     0.0000000     0.0121965     0.0252467     0.0392104     0.0541515     0.0701386     0.0872448     0.1055484     0.1251332     0.1460890     0.1685117     0.1925040     0.2181758     0.2456446     0.2750362     0.3064852     0.3401356     0.3761415     0.4146680     0.4558912     0.5000000     0.5441088     0.5853320     0.6238585     0.6598644     0.6935148     0.7249638     0.7543554     0.7818242     0.8074960     0.8314883     0.8539110     0.8748668     0.8944516     0.9127552     0.9298614     0.9458485     0.9607896     0.9747533     0.9878035     1.0000000     0.0000000     0.0121965     0.0252467     0.0392104     0.0541515     0.0701386     0.0872448     0.1055484     0.1251332     0.1460890     0.1685117     0.1925040     0.2181758     0.2456446     0.2750362     0.3064852     0.3401356     0.3761415     0.4146680     0.4558912     0.5000000     0.5441088     0.5853320     0.6238585     0.6598644     0.6935148
     0.7249638     0.7543554     0.7818242     0.8074960     0.8314883     0.8539110     0.8748668     0.8944516     0.9127552     0.9298614     0.9458485     0.9607896     0.9747533     0.9878035     1.0000000     0.0000000     0.0121965     0.0252467     0.0392104     0.0541515     0.0701386     0.0872448     0.1055484     0.1251332     0.1460890     0.1685117     0.1925040     0.2181758     0.2456446     0.2750362     0.3064852     0.3401356     0.3761415     0.4146680     0.4558912     0.5000000     0.5441088     0.5853320     0.6238585     0.6598644     0.6935148     0.7249638     0.7543554     0.7818242     0.8074960     0.8314883     0.8539110     0.8748668     0.8944516     0.9127552     0.9298614     0.9458485     0.9607896     0.9747533     0.9878035     1.0000000     0.0000000     0.0121965     0.0252467     0.0392104     0.0541515     0.0701386     0.0872448     0.1055484     0.1251332     0.1460890     0.1685117     0.1925040     0.2181758     0.2456446     0.2750362     0.3064852     0.3401356     0.3761415     0.4146680     0.4558912     0.5000000     0.5441088     0.5853320     0.6238585     0.6598644     0.6935148     0.7249638     0.7543554     0.7818242     0.8074960     0.8314883     0.8539110     0.8748668     0.8944516     0.9127552     0.9298614     0.9458485     0.9607896     0.9747533     0.9878035     1.0000000     0.0000000     0.0121965     0.0252467
     0.0392104     0.0541515     0.0701386     0.0872448     0.1055484     0.1251332     0.1460890     0.1685117     0.1925040     0.2181758     0.2456446     0.2750362     0.3064852     0.3401356     0.3761415     0.4146680     0.4558912     0.5000000     0.5441088     0.5853320     0.6238585     0.6598644     0.6935148     0.7249638     0.7543554     0.7818242     0.8074960     0.8314883     0.8539110     0.8748668     0.8944516     0.9127552     0.9298614     0.9458485     0.9607896     0.9747533     0.9878035     1.0000000     0.0000000     0.0121965     0.0252467     0.0392104     0.0541515     0.0701386     0.0872448     0.1055484     0.1251332     0.1460890     0.1685117     0.1925040     0.2181758     0.2456446     0.2750362     0.3064852     0.3401356     0.3761415     0.4146680     0.4558912     0.5000000     0.5441088     0.5853320     0.6238585     0.6598644     0.6935148     0.7249638     0.7543554     0.7818242     0.8074960     0.8314883     0.8539110     0.8748668     0.8944516     0.9127552     0.9298614     0.9458485     0.9607896     0.9747533     0.9878035     1.0000000     0.0000000     0.0121965     0.0252467     0.0392104     0.0541515     0.0701386     0.0872448     0.1055484     0.1251332     0.1460890     0.1685117     0.1925040     0.2181758     0.2456446     0.2750362     0.3064852     0.3401356     0.3761415     0.4146680     0.4558912     0.5000000
     0.5441088     0.5853320     0.6238585     0.6598644     0.6935148     0.7249638     0.7543554     0.7818242     0.8074960     0.8314883     0.8539110     0.8748668     0.8944516     0.9127552     0.9298614     0.9458485     0.9607896     0.9747533     0.9878035     1.0000000     0.0000000     0.0121965     0.0252467     0.0392104     0.0541515     0.0701386     0.0872448     0.1055484     0.1251332     0.1460890     0.1685117     0.1925040     0.2181758     0.2456446     0.2750362     0.3064852     0.3401356     0.3761415     0.4146680     0.4558912     0.5000000     0.5441088     0.5853320     0.6238585     0.6598644     0.6935148     0.7249638     0.7543554     0.7818242     0.8074960     0.8314883     0.8539110     0.8748668     0.8944516     0.9127552     0.9298614     0.9458485     0.9607896     0.9747533     0.9878035     1.0000000     0.0000000     0.0121965     0.0252467     0.0392104     0.0541515     0.0701386     0.0872448     0.1055484     0.1251332     0.1460890     0.1685117     0.1925040     0.2181758     0.2456446     0.2750362     0.3064852     0.3401356     0.3761415     0.4146680     0.4558912     0.5000000     0.5441088     0.5853320     0.6238585     0.6598644     0.6935148     0.7249638     0.7543554     0.7818242     0.8074960     0.8314883     0.8539110     0.8748668     0.8944516     0.9127552     0.9298614     0.9458485     0.9607896     0.9747533
     0.9878035     1.0000000     0.0000000     0.0121965     0.0252467     0.0392104     0.0541515     0.0701386     0.0872448     0.1055484     0.1251332     0.1460890     0.1685117     0.1925040     0.2181758     0.2456446     0.2750362     0.3064852     0.3401356     0.3761415     0.4146680     0.4558912     0.5000000     0.5441088     0.5853320     0.6238585     0.6598644     0.6935148     0.7249638     0.7543554     0.7818242     0.8074960     0.8314883     0.8539110     0.8748668     0.8944516     0.9127552     0.9298614     0.9458485     0.9607896     0.9747533     0.9878035     1.0000000     0.0000000     0.0121965     0.0252467     0.0392104     0.0541515     0.0701386     0.0872448     0.1055484     0.1251332     0.1460890     0.1685117     0.1925040     0.2181758     0.2456446     0.2750362     0.3064852     0.3401356     0.3761415     0.4146680     0.4558912     0.5000000     0.5441088     0.5853320     0.6238585     0.6598644     0.6935148     0.7249638     0.7543554     0.7818242     0.8074960     0.8314883     0.8539110     0.8748668     0.8944516     0.9127552     0.9298614     0.9458485     0.9607896     0.9747533     0.9878035     1.0000000     0.0000000     0.0121965     0.0252467     0.0392104     0.0541515     0.0701386     0.0872448     0.1055484     0.1251332     0.1460890     0.1685117     0.1925040     0.2181758     0.2456446     0.2750362     0.3064852
     0.3401356     0.3761415     0.4146680     0.4558912     0.5000000     0.5441088     0.5853320     0.6238585     0.6598644     0.6935148     0.7249638     0.7543554     0.7818242     0.8074960     0.8314883     0.8539110     0.8748668     0.8944516     0.9127552     0.9298614     0.9458485     0.9607896     0.9747533     0.9878035     1.0000000     0.0000000     0.0121965     0.0252467     0.0392104     0.0541515     0.0701386     0.0872448     0.1055484     0.1251332     0.1460890     0.1685117     0.1925040     0.2181758     0.2456446     0.2750362     0.3064852     0.3401356     0.3761415     0.4146680     0.4558912     0.5000000     0.5441088     0.5853320     0.6238585     0.6598644     0.6935148     0.7249638     0.7543554     0.7818242     0.8074960     0.8314883     0.8539110     0.8748668     0.8944516     0.9127552     0.9298614     0.9458485     0.9607896     0.9747533     0.9878035     1.0000000     0.0000000     0.0121965     0.0252467     0.0392104     0.0541515     0.0701386     0.0872448     0.1055484     0.1251332     0.1460890     0.1685117     0.1925040     0.2181758     0.2456446     0.2750362     0.3064852     0.3401356     0.3761415     0.4146680     0.4558912     0.5000000     0.5441088     0.5853320     0.6238585     0.6598644     0.6935148     0.7249638     0.7543554     0.7818242     0.8074960     0.8314883     0.8539110     0.8748668     0.8944516
     0.9127552     0.9298614     0.9458485     0.9607896     0.9747533     0.9878035     1.0000000     0.0000000     0.0121965     0.0252467     0.0392104     0.0541515     0.0701386     0.0872448     0.1055484     0.1251332     0.1460890     0.1685117     0.1925040     0.2181758     0.2456446     0.2750362     0.3064852     0.3401356     0.3761415     0.4146680     0.4558912     0.5000000     0.5441088     0.5853320     0.6238585     0.6598644     0.6935148     0.7249638     0.7543554     0.7818242     0.8074960     0.8314883     0.8539110     0.8748668     0.8944516     0.9127552     0.9298614     0.9458485     0.9607896     0.9747533     0.9878035     1.0000000     0.0000000     0.0121965     0.0252467     0.0392104     0.0541515     0.0701386     0.0872448     0.1055484     0.1251332     0.1460890     0.1685117     0.1925040     0.2181758     0.2456446     0.2750362     0.3064852     0.3401356     0.3761415     0.4146680     0.4558912     0.5000000     0.5441088     0.5853320     0.6238585     0.6598644     0.6935148     0.7249638     0.7543554     0.7818242     0.8074960     0.8314883     0.8539110     0.8748668     0.8944516     0.9127552     0.9298614     0.9458485     0.9607896     0.9747533     0.9878035     1.0000000     0.0000000     0.0121965     0.0252467     0.0392104     0.0541515     0.0701386     0.0872448     0.1055484     0.1251332     0.1460890     0.1685117
     0.1925040     0.2181758     0.2456446     0.2750362     0.3064852     0.3401356     0.3761415     0.4146680     0.4558912     0.5000000     0.5441088     0.5853320     0.6238585     0.6598644     0.6935148     0.7249638     0.7543554     0.7818242     0.8074960     0.8314883     0.8539110     0.8748668     0.8944516     0.9127552     0.9298614     0.9458485     0.9607896     0.9747533     0.9878035     1.0000000     0.0000000     0.0121965     0.0252467     0.0392104     0.0541515     0.0701386     0.0872448     0.1055484     0.1251332     0.1460890     0.1685117     0.1925040     0.2181758     0.2456446     0.2750362     0.3064852     0.3401356     0.3761415     0.4146680     0.4558912     0.5000000     0.5441088     0.5853320     0.6238585     0.6598644     0.6935148     0.7249638     0.7543554     0.7818242     0.8074960     0.8314883     0.8539110     0.8748668     0.8944516     0.9127552     0.9298614     0.9458485     0.9607896     0.9747533     0.9878035     1.0000000     0.0000000     0.0121965     0.0252467     0.0392104     0.0541515     0.0701386     0.0872448     0.1055484     0.1251332     0.1460890     0.1685117     0.1925040     0.2181758     0.2456446     0.2750362     0.3064852     0.3401356     0.3761415     0.4146680     0.4558912     0.5000000     0.5441088     0.5853320     0.6238585     0.6598644     0.6935148     0.7249638     0.7543554     0.7818242
     0.8074960     0.8314883     0.8539110     0.8748668     0.8944516     0.9127552     0.9298614     0.9458485     0.9607896     0.9747533     0.9878035     1.0000000     0.0000000     0.0121965     0.0252467     0.0392104     0.0541515     0.0701386     0.0872448     0.1055484     0.1251332     0.1460890     0.1685117     0.1925040     0.2181758     0.2456446     0.2750362     0.3064852     0.3401356     0.3761415     0.4146680     0.4558912     0.5000000     0.5441088     0.5853320     0.6238585     0.6598644     0.6935148     0.7249638     0.7543554     0.7818242     0.8074960     0.8314883     0.8539110     0.8748668     0.8944516     0.9127552     0.9298614     0.9458485     0.9607896     0.9747533     0.9878035     1.0000000     0.0000000     0.0121965     0.0252467     0.0392104     0.0541515     0.0701386     0.0872448     0.1055484     0.1251332     0.1460890     0.1685117     0.1925040     0.2181758     0.2456446     0.2750362     0.3064852     0.3401356     0.3761415     0.4146680     0.4558912     0.5000000     0.5441088     0.5853320     0.6238585     0.6598644     0.6935148     0.7249638     0.7543554     0.7818242     0.8074960     0.8314883     0.8539110     0.8748668     0.8944516     0.9127552     0.9298614     0.9458485     0.9607896     0.9747533     0.9878035     1.0000000     0.0000000     0.0121965     0.0252467     0.0392104     0.0541515     0.0701386
     0.0872448     0.1055484     0.1251332     0.1460890     0.1685117     0.1925040     0.2181758     0.2456446     0.2750362     0.3064852     0.3401356     0.3761415     0.4146680     0.4558912     0.5000000     0.5441088     0.5853320     0.6238585     0.6598644     0.6935148     0.7249638     0.7543554     0.7818242     0.8074960     0.8314883     0.8539110     0.8748668     0.8944516     0.9127552     0.9298614     0.9458485     0.9607896     0.9747533     0.9878035     1.0000000     0.0000000     0.0121965     0.0252467     0.0392104     0.0541515     0.0701386     0.0872448     0.1055484     0.1251332     0.1460890     0.1685117     0.1925040     0.2181758     0.2456446     0.2750362     0.3064852     0.3401356     0.3761415     0.4146680     0.4558912     0.5000000     0.5441088     0.5853320     0.6238585     0.6598644     0.6935148     0.7249638     0.7543554     0.7818242     0.8074960     0.8314883     0.8539110     0.8748668     0.8944516     0.9127552     0.9298614     0.9458485     0.9607896     0.9747533     0.9878035     1.0000000     0.0000000     0.0121965     0.0252467     0.0392104     0.0541515     0.0701386     0.0872448     0.1055484     0.1251332     0.1460890     0.1685117     0.1925040     0.2181758     0.2456446     0.2750362     0.3064852     0.3401356     0.3761415     0.4146680     0.4558912     0.5000000     0.5441088     0.5853320     0.6238585
     0.6598644     0.6935148     0.7249638     0.7543554     0.7818242     0.8074960     0.8314883     0.8539110     0.8748668     0.8944516     0.9127552     0.9298614     0.9458485     0.9607896     0.9747533     0.9878035     1.0000000     0.0000000     0.0121965     0.0252467     0.0392104     0.0541515     0.0701386     0.0872448     0.1055484     0.1251332     0.1460890     0.1685117     0.1925040     0.2181758     0.2456446     0.2750362     0.3064852     0.3401356     0.3761415     0.4146680     0.4558912     0.5000000     0.5441088     0.5853320     0.6238585     0.6598644     0.6935148     0.7249638     0.7543554     0.7818242     0.8074960     0.8314883     0.8539110     0.8748668     0.8944516     0.9127552     0.9298614     0.9458485     0.9607896     0.9747533     0.9878035     1.0000000     0.0000000     0.0121965     0.0252467     0.0392104     0.0541515     0.0701386     0.0872448     0.1055484     0.1251332     0.1460890     0.1685117     0.1925040     0.2181758     0.2456446     0.2750362     0.3064852     0.3401356     0.3761415     0.4146680     0.4558912     0.5000000     0.5441088     0.5853320     0.6238585     0.6598644     0.6935148     0.7249638     0.7543554     0.7818242     0.8074960     0.8314883     0.8539110     0.8748668     0.8944516     0.9127552     0.9298614     0.9458485     0.9607896     0.9747533     0.9878035     1.0000000     0.0000000
     0.0121965     0.0252467     0.0392104     0.0541515     0.0701386     0.0872448     0.1055484     0.1251332     0.1460890     0.1685117     0.1925040     0.2181758     0.2456446     0.2750362     0.3064852     0.3401356     0.3761415     0.4146680     0.4558912     0.5000000     0.5441088     0.5853320     0.6238585     0.6598644     0.6935148     0.7249638     0.7543554     0.7818242     0.8074960     0.8314883     0.8539110     0.8748668     0.8944516     0.9127552     0.9298614     0.9458485     0.9607896     0.9747533     0.9878035     1.0000000     0.0000000     0.0121965     0.0252467     0.0392104     0.0541515     0.0701386     0.0872448     0.1055484     0.1251332     0.1460890     0.1685117     0.1925040     0.2181758     0.2456446     0.2750362     0.3064852     0.3401356     0.3761415     0.4146680     0.4558912     0.5000000     0.5441088     0.5853320     0.6238585     0.6598644     0.6935148     0.7249638     0.7543554     0.7818242     0.8074960     0.8314883     0.8539110     0.8748668     0.8944516     0.9127552     0.9298614     0.9458485     0.9607896     0.9747533     0.9878035     1.0000000
     0.0000000     0.0000000     0.0000000     0.0000000     0.0000000     0.0000000     0.0000000     0.0000000     0.0000000     0.0000000     0.0000000     0.0000000     0.0000000     0.0000000     0.0000000     0.0000000     0.0000000     0.0000000     0.0000000     0.0000000     0.0000000     0.0000000     0.0000000     0.0000000     0.0000000     0.0000000     0.0000000     0.0000000     0.0000000     0.0000000     0.0000000     0.0000000     0.0000000     0.0000000     0.0000000     0.0000000     0.0000000     0.0000000     0.0000000     0.0000000     0.0000000     0.0121965     0.0121965     0.0121965     0.0121965     0.0121965     0.0121965     0.0121965     0.0121965     0.0121965     0.0121965     0.0121965     0.0121965     0.0121965     0.0121965     0.0121965     0.0121965     0.0121965     0.0121965     0.0121965     0.0121965     0.0121965     0.0121965     0.0121965     0.0121965     0.0121965     0.0121965     0.0121965     0.0121965     0.0121965     0.0121965     0.0121965     0.0121965     0.0121965     0.0121965     0.0121965     0.0121965     0.0121965     0.0121965     0.0121965     0.0121965     0.0121965     0.0252467     0.0252467     0.0252467     0.0252467     0.0252467     0.0252467     0.0252467     0.0252467     0.0252467     0.0252467     0.0252467     0.0252467     0.0252467     0.0252467     0.0252467     0.0252467     0.0252467     0.0252467
     0.0252467     0.0252467     0.0252467     0.0252467     0.0252467     0.0252467     0.0252467     0.0252467     0.0252467     0.0252467     0.0252467     0.0252467     0.0252467     0.0252467     0.0252467     0.0252467     0.0252467     0.0252467     0.0252467     0.0252467     0.0252467     0.0252467     0.0252467     0.0392104     0.0392104     0.0392104     0.0392104     0.0392104     0.0392104     0.0392104     0.0392104     0.0392104     0.0392104     0.0392104     0.0392104     0.0392104     0.0392104     0.0392104     0.0392104     0.0392104     0.0392104     0.0392104     0.0392104     0.0392104     0.0392104     0.0392104     0.0392104     0.0392104     0.0392104     0.0392104     0.0392104     0.0392104     0.0392104     0.0392104     0.0392104     0.0392104     0.0392104     0.0392104     0.0392104     0.0392104     0.0392104     0.0392104     0.0392104     0.0392104     0.0541515     0.0541515     0.0541515     0.0541515     0.0541515     0.0541515     0.0541515     0.0541515     0.0541515     0.0541515     0.0541515     0.0541515     0.0541515     0.0541515     0.0541515     0.0541515     0.0541515     0.0541515     0.0541515     0.0541515     0.0541515     0.0541515     0.0541515     0.0541515     0.0541515     0.0541515     0.0541515     0.0541515     0.0541515     0.0541515     0.0541515     0.0541515     0.0541515     0.0541515     0.0541515     0.0541515
     0.0541515     0.0541515     0.0541515     0.0541515     0.0541515     0.0701386     0.0701386     0.0701386     0.0701386     0.0701386     0.0701386     0.0701386     0.0701386     0.0701386     0.0701386     0.0701386     0.0701386     0.0701386     0.0701386     0.0701386     0.0701386     0.0701386     0.0701386     0.0701386     0.0701386     0.0701386     0.0701386     0.0701386     0.0701386     0.0701386     0.0701386     0.0701386     0.0701386     0.0701386     0.0701386     0.0701386     0.0701386     0.0701386     0.0701386     0.0701386     0.0701386     0.0701386     0.0701386     0.0701386     0.0701386     0.0701386     0.0872448     0.0872448     0.0872448     0.0872448     0.0872448     0.0872448     0.0872448     0.0872448     0.0872448     0.0872448     0.0872448     0.0872448     0.0872448     0.0872448     0.0872448     0.0872448     0.0872448     0.0872448     0.0872448     0.0872448     0.0872448     0.0872448     0.0872448     0.0872448     0.0872448     0.0872448     0.0872448     0.0872448     0.0872448     0.0872448     0.0872448     0.0872448     0.0872448     0.0872448     0.0872448     0.0872448     0.0872448     0.0872448     0.0872448     0.0872448     0.0872448     0.1055484     0.1055484     0.1055484     0.1055484     0.1055484     0.1055484     0.1055484     0.1055484     0.1055484     0.1055484     0.1055484     0.1055484     0.1055484
     0.1055484     0.1055484     0.1055484     0.1055484     0.1055484     0.1055484     0.1055484     0.1055484     0.1055484     0.1055484     0.1055484     0.1055484     0.1055484     0.1055484     0.1055484     0.1055484     0.1055484     0.1055484     0.1055484     0.1055484     0.1055484     0.1055484     0.1055484     0.1055484     0.1055484     0.1055484     0.1055484     0.1055484     0.1251332     0.1251332     0.1251332     0.1251332     0.1251332     0.1251332     0.1251332     0.1251332     0.1251332     0.1251332     0.1251332     0.1251332     0.1251332     0.1251332     0.1251332     0.1251332     0.1251332     0.1251332     0.1251332     0.1251332     0.1251332     0.1251332     0.1251332     0.1251332     0.1251332     0.1251332     0.1251332     0.1251332     0.1251332     0.1251332     0.1251332     0.1251332     0.1251332     0.1251332     0.1251332     0.1251332     0.1251332     0.1251332     0.1251332     0.1251332     0.1251332     0.1460890     0.1460890     0.1460890     0.1460890     0.1460890     0.1460890     0.1460890     0.1460890     0.1460890     0.1460890     0.1460890     0.1460890     0.1460890     0.1460890     0.1460890     0.1460890     0.1460890     0.1460890     0.1460890     0.1460890     0.1460890     0.1460890     0.1460890     0.1460890     0.1460890     0.1460890     0.1460890     0.1460890     0.1460890     0.1460890     0.1460890