Variables = "x","y", "Velocity_x", "Velocity_y", "Velocity_whole value", "Pressure", "Absolute pressure", "Total pressure"
Zone i=90, j=32
-1.5000000e+001 -5.0000000e-001  0.0000000e+000  0.0000000e+000  0.0000000e+000  1.7237135e+000  1.7237135e+000  1.7237135e+000 
-1.4750000e+001 -5.0000000e-001  0.0000000e+000  0.0000000e+000  0.0000000e+000  1.5806296e+000  1.5806296e+000  1.5806296e+000 
-1.4250000e+001 -5.0000000e-001  0.0000000e+000  0.0000000e+000  0.0000000e+000  1.2944617e+000  1.2944617e+000  1.2944617e+000 
-1.3750000e+001 -5.0000000e-001  0.0000000e+000  0.0000000e+000  0.0000000e+000  1.2744319e+000  1.2744319e+000  1.2744319e+000 
-1.3250000e+001 -5.0000000e-001  0.0000000e+000  0.0000000e+000  0.0000000e+000  1.1827449e+000  1.1827449e+000  1.1827449e+000 
-1.2750000e+001 -5.0000000e-001  0.0000000e+000  0.0000000e+000  0.0000000e+000  1.1358430e+000  1.1358430e+000  1.1358430e+000 
-1.2250000e+001 -5.0000000e-001  0.0000000e+000  0.0000000e+000  0.0000000e+000  1.0724701e+000  1.0724701e+000  1.0724701e+000 
-1.1750000e+001 -5.0000000e-001  0.0000000e+000  0.0000000e+000  0.0000000e+000  1.0232458e+000  1.0232458e+000  1.0232458e+000 
-1.1250000e+001 -5.0000000e-001  0.0000000e+000  0.0000000e+000  0.0000000e+000  9.7054124e-001  9.7054124e-001  9.7054124e-001 
-1.0750000e+001 -5.0000000e-001  0.0000000e+000  0.0000000e+000  0.0000000e+000  9.2299026e-001  9.2299026e-001  9.2299026e-001 
-1.0250000e+001 -5.0000000e-001  0.0000000e+000  0.0000000e+000  0.0000000e+000  8.7500006e-001  8.7500006e-001  8.7500006e-001 
-9.7500000e+000 -5.0000000e-001  0.0000000e+000  0.0000000e+000  0.0000000e+000  8.2928127e-001  8.2928127e-001  8.2928127e-001 
-9.2500000e+000 -5.0000000e-001  0.0000000e+000  0.0000000e+000  0.0000000e+000  7.8376979e-001  7.8376979e-001  7.8376979e-001 
-8.7500000e+000 -5.0000000e-001  0.0000000e+000  0.0000000e+000  0.0000000e+000  7.3936033e-001  7.3936033e-001  7.3936033e-001 
-8.2500000e+000 -5.0000000e-001  0.0000000e+000  0.0000000e+000  0.0000000e+000  6.9523686e-001  6.9523686e-001  6.9523686e-001 
-7.7500000e+000 -5.0000000e-001  0.0000000e+000  0.0000000e+000  0.0000000e+000  6.5168166e-001  6.5168166e-001  6.5168166e-001 
-7.2500000e+000 -5.0000000e-001  0.0000000e+000  0.0000000e+000  0.0000000e+000  6.0835880e-001  6.0835880e-001  6.0835880e-001 
-6.7500000e+000 -5.0000000e-001  0.0000000e+000  0.0000000e+000  0.0000000e+000  5.6534022e-001  5.6534022e-001  5.6534022e-001 
-6.2500000e+000 -5.0000000e-001  0.0000000e+000  0.0000000e+000  0.0000000e+000  5.2248609e-001  5.2248609e-001  5.2248609e-001 
-5.7500000e+000 -5.0000000e-001  0.0000000e+000  0.0000000e+000  0.0000000e+000  4.7979751e-001  4.7979751e-001  4.7979751e-001 
-5.2500000e+000 -5.0000000e-001  0.0000000e+000  0.0000000e+000  0.0000000e+000  4.3721992e-001  4.3721992e-001  4.3721992e-001 
-4.7500000e+000 -5.0000000e-001  0.0000000e+000  0.0000000e+000  0.0000000e+000  3.9473158e-001  3.9473158e-001  3.9473158e-001 
-4.2500000e+000 -5.0000000e-001  0.0000000e+000  0.0000000e+000  0.0000000e+000  3.5231861e-001  3.5231861e-001  3.5231861e-001 
-3.7500000e+000 -5.0000000e-001  0.0000000e+000  0.0000000e+000  0.0000000e+000  3.0994940e-001  3.0994940e-001  3.0994940e-001 
-3.2500000e+000 -5.0000000e-001  0.0000000e+000  0.0000000e+000  0.0000000e+000  2.6763684e-001  2.6763684e-001  2.6763684e-001 
-2.7500000e+000 -5.0000000e-001  0.0000000e+000  0.0000000e+000  0.0000000e+000  2.2533457e-001  2.2533457e-001  2.2533457e-001 
-2.2500000e+000 -5.0000000e-001  0.0000000e+000  0.0000000e+000  0.0000000e+000  1.8308809e-001  1.8308809e-001  1.8308809e-001 
-1.7500000e+000 -5.0000000e-001  0.0000000e+000  0.0000000e+000  0.0000000e+000  1.4081267e-001  1.4081267e-001  1.4081267e-001 
-1.2500000e+000 -5.0000000e-001  0.0000000e+000  0.0000000e+000  0.0000000e+000  9.8623857e-002  9.8623857e-002  9.8623857e-002 
-7.5000000e-001 -5.0000000e-001  0.0000000e+000  0.0000000e+000  0.0000000e+000  5.6323003e-002  5.6323003e-002  5.6323003e-002 
-2.5000000e-001 -5.0000000e-001  0.0000000e+000  0.0000000e+000  0.0000000e+000  1.4188631e-002  1.4188631e-002  1.4188631e-002 
 2.5781101e-001 -4.9991980e-001  0.0000000e+000  0.0000000e+000  0.0000000e+000 -2.8823370e-002 -2.8823370e-002 -2.8823370e-002 
 7.7370852e-001 -5.0029534e-001  0.0000000e+000  0.0000000e+000  0.0000000e+000 -7.3059954e-002 -7.3059954e-002 -7.3059954e-002 
 1.2898365e+000 -5.0154495e-001  0.0000000e+000  0.0000000e+000  0.0000000e+000 -1.1593291e-001 -1.1593291e-001 -1.1593291e-001 
 1.8059161e+000 -5.0252867e-001  0.0000000e+000  0.0000000e+000  0.0000000e+000 -1.5310977e-001 -1.5310977e-001 -1.5310977e-001 
 2.3220081e+000 -5.0246620e-001  0.0000000e+000  0.0000000e+000  0.0000000e+000 -2.0099080e-001 -2.0099080e-001 -2.0099080e-001 
 2.8379831e+000 -5.0597072e-001  0.0000000e+000  0.0000000e+000  0.0000000e+000 -2.4998188e-001 -2.4998188e-001 -2.4998188e-001 
 3.3529205e+000 -5.3282583e-001  0.0000000e+000  0.0000000e+000  0.0000000e+000 -3.1072867e-001 -3.1072867e-001 -3.1072867e-001 
 3.8609519e+000 -6.1374491e-001  0.0000000e+000  0.0000000e+000  0.0000000e+000 -2.8624681e-001 -2.8624681e-001 -2.8624681e-001 
 4.3507257e+000 -7.6917183e-001  0.0000000e+000  0.0000000e+000  0.0000000e+000 -2.2595052e-001 -2.2595052e-001 -2.2595052e-001 
 4.8190479e+000 -9.8458064e-001  0.0000000e+000  0.0000000e+000  0.0000000e+000 -1.6932200e-001 -1.6932200e-001 -1.6932200e-001 
 5.2727385e+000 -1.2303030e+000  0.0000000e+000  0.0000000e+000  0.0000000e+000 -1.5253344e-001 -1.5253344e-001 -1.5253344e-001 
 5.7291708e+000 -1.4701740e+000  0.0000000e+000  0.0000000e+000  0.0000000e+000 -1.3635339e-001 -1.3635339e-001 -1.3635339e-001 
 6.2016630e+000 -1.6758630e+000  0.0000000e+000  0.0000000e+000  0.0000000e+000 -1.2960145e-001 -1.2960145e-001 -1.2960145e-001 
 6.6921778e+000 -1.8315965e+000  0.0000000e+000  0.0000000e+000  0.0000000e+000 -1.1778349e-001 -1.1778349e-001 -1.1778349e-001 
 7.1974792e+000 -1.9336360e+000  0.0000000e+000  0.0000000e+000  0.0000000e+000 -1.0877780e-001 -1.0877780e-001 -1.0877780e-001 
 7.7101431e+000 -1.9856045e+000  0.0000000e+000  0.0000000e+000  0.0000000e+000 -9.3181513e-002 -9.3181513e-002 -9.3181513e-002 
 8.2258377e+000 -1.9988251e+000  0.0000000e+000  0.0000000e+000  0.0000000e+000 -6.9082141e-002 -6.9082141e-002 -6.9082141e-002 
 8.7419205e+000 -2.0000606e+000  0.0000000e+000  0.0000000e+000  0.0000000e+000 -4.2979807e-002 -4.2979807e-002 -4.2979807e-002 
 9.2624998e+000 -2.0000000e+000  0.0000000e+000  0.0000000e+000  0.0000000e+000 -2.8993517e-002 -2.8993517e-002 -2.8993517e-002 
 9.7875004e+000 -2.0000000e+000  0.0000000e+000  0.0000000e+000  0.0000000e+000 -3.1459387e-002 -3.1459387e-002 -3.1459387e-002 
 1.0312500e+001 -2.0000000e+000  0.0000000e+000  0.0000000e+000  0.0000000e+000 -4.4819769e-002 -4.4819769e-002 -4.4819769e-002 
 1.0837500e+001 -2.0000000e+000  0.0000000e+000  0.0000000e+000  0.0000000e+000 -6.0388643e-002 -6.0388643e-002 -6.0388643e-002 
 1.1362500e+001 -2.0000000e+000  0.0000000e+000  0.0000000e+000  0.0000000e+000 -7.3805697e-002 -7.3805697e-002 -7.3805697e-002 
 1.1887500e+001 -2.0000000e+000  0.0000000e+000  0.0000000e+000  0.0000000e+000 -8.3718173e-002 -8.3718173e-002 -8.3718173e-002 
 1.2412500e+001 -2.0000000e+000  0.0000000e+000  0.0000000e+000  0.0000000e+000 -8.9456551e-002 -8.9456551e-002 -8.9456551e-002 
 1.2937500e+001 -2.0000000e+000  0.0000000e+000  0.0000000e+000  0.0000000e+000 -9.2244670e-002 -9.2244670e-002 -9.2244670e-002 
 1.3462500e+001 -2.0000000e+000  0.0000000e+000  0.0000000e+000  0.0000000e+000 -9.2780888e-002 -9.2780888e-002 -9.2780888e-002 
 1.3987500e+001 -2.0000000e+000  0.0000000e+000  0.0000000e+000  0.0000000e+000 -9.1461137e-002 -9.1461137e-002 -9.1461137e-002 
 1.4512500e+001 -2.0000000e+000  0.0000000e+000  0.0000000e+000  0.0000000e+000 -8.8572450e-002 -8.8572450e-002 -8.8572450e-002 
 1.5037500e+001 -2.0000000e+000  0.0000000e+000  0.0000000e+000  0.0000000e+000 -8.4334463e-002 -8.4334463e-002 -8.4334463e-002 
 1.5562500e+001 -2.0000000e+000  0.0000000e+000  0.0000000e+000  0.0000000e+000 -7.8935295e-002 -7.8935295e-002 -7.8935295e-002 
 1.6087496e+001 -2.0000000e+000  0.0000000e+000  0.0000000e+000  0.0000000e+000 -7.2601892e-002 -7.2601892e-002 -7.2601892e-002 
 1.6612492e+001 -2.0000000e+000  0.0000000e+000  0.0000000e+000  0.0000000e+000 -6.5652102e-002 -6.5652102e-002 -6.5652102e-002 
 1.7137495e+001 -2.0000000e+000  0.0000000e+000  0.0000000e+000  0.0000000e+000 -5.8457538e-002 -5.8457538e-002 -5.8457538e-002 
 1.7662498e+001 -2.0000000e+000  0.0000000e+000  0.0000000e+000  0.0000000e+000 -5.1519372e-002 -5.1519372e-002 -5.1519372e-002 
 1.8187500e+001 -2.0000000e+000  0.0000000e+000  0.0000000e+000  0.0000000e+000 -4.5249909e-002 -4.5249909e-002 -4.5249909e-002 
 1.8712502e+001 -2.0000000e+000  0.0000000e+000  0.0000000e+000  0.0000000e+000 -3.9970081e-002 -3.9970081e-002 -3.9970081e-002 
 1.9237499e+001 -2.0000000e+000  0.0000000e+000  0.0000000e+000  0.0000000e+000 -3.5768479e-002 -3.5768479e-002 -3.5768479e-002 
 1.9762501e+001 -2.0000000e+000  0.0000000e+000  0.0000000e+000  0.0000000e+000 -3.2563634e-002 -3.2563634e-002 -3.2563634e-002 
 2.0287498e+001 -2.0000000e+000  0.0000000e+000  0.0000000e+000  0.0000000e+000 -3.0156896e-002 -3.0156896e-002 -3.0156896e-002 
 2.0812500e+001 -2.0000000e+000  0.0000000e+000  0.0000000e+000  0.0000000e+000 -2.8342312e-002 -2.8342312e-002 -2.8342312e-002 
 2.1337502e+001 -2.0000000e+000  0.0000000e+000  0.0000000e+000  0.0000000e+000 -2.6941594e-002 -2.6941594e-002 -2.6941594e-002 
 2.1862499e+001 -2.0000000e+000  0.0000000e+000  0.0000000e+000  0.0000000e+000 -2.5791492e-002 -2.5791492e-002 -2.5791492e-002 
 2.2387501e+001 -2.0000000e+000  0.0000000e+000  0.0000000e+000  0.0000000e+000 -2.4793267e-002 -2.4793267e-002 -2.4793267e-002 
 2.2912498e+001 -2.0000000e+000  0.0000000e+000  0.0000000e+000  0.0000000e+000 -2.3831112e-002 -2.3831112e-002 -2.3831112e-002 
 2.3437500e+001 -2.0000000e+000  0.0000000e+000  0.0000000e+000  0.0000000e+000 -2.2870356e-002 -2.2870356e-002 -2.2870356e-002 
 2.3962502e+001 -2.0000000e+000  0.0000000e+000  0.0000000e+000  0.0000000e+000 -2.1838060e-002 -2.1838060e-002 -2.1838060e-002 
 2.4487499e+001 -2.0000000e+000  0.0000000e+000  0.0000000e+000  0.0000000e+000 -2.0708157e-002 -2.0708157e-002 -2.0708157e-002 
 2.5012501e+001 -2.0000000e+000  0.0000000e+000  0.0000000e+000  0.0000000e+000 -1.9420398e-002 -1.9420398e-002 -1.9420398e-002 
 2.5537498e+001 -2.0000000e+000  0.0000000e+000  0.0000000e+000  0.0000000e+000 -1.8020000e-002 -1.8020000e-002 -1.8020000e-002 
 2.6062500e+001 -2.0000000e+000  0.0000000e+000  0.0000000e+000  0.0000000e+000 -1.6398765e-002 -1.6398765e-002 -1.6398765e-002 
 2.6587502e+001 -2.0000000e+000  0.0000000e+000  0.0000000e+000  0.0000000e+000 -1.4664371e-002 -1.4664371e-002 -1.4664371e-002 
 2.7112499e+001 -2.0000000e+000  0.0000000e+000  0.0000000e+000  0.0000000e+000 -1.2704859e-002 -1.2704859e-002 -1.2704859e-002 
 2.7637501e+001 -2.0000000e+000  0.0000000e+000  0.0000000e+000  0.0000000e+000 -1.0597462e-002 -1.0597462e-002 -1.0597462e-002 
 2.8162498e+001 -2.0000000e+000  0.0000000e+000  0.0000000e+000  0.0000000e+000 -8.4324740e-003 -8.4324740e-003 -8.4324740e-003 
 2.8687500e+001 -2.0000000e+000  0.0000000e+000  0.0000000e+000  0.0000000e+000 -5.7879370e-003 -5.7879370e-003 -5.7879370e-003 
 2.9212502e+001 -2.0000000e+000  0.0000000e+000  0.0000000e+000  0.0000000e+000 -3.9192126e-003 -3.9192126e-003 -3.9192126e-003 
 2.9737499e+001 -2.0000000e+000  0.0000000e+000  0.0000000e+000  0.0000000e+000  1.8545851e-004  1.8545851e-004  1.8545851e-004 
 3.0000000e+001 -2.0000000e+000  0.0000000e+000  0.0000000e+000  0.0000000e+000  2.2377940e-003  2.2377940e-003  2.2377940e-003 
-1.5000000e+001 -4.8841447e-001  1.0000000e+000  0.0000000e+000  1.0000000e+000  1.7176588e+000  1.7176588e+000  2.2176588e+000 
-1.4750000e+001 -4.8841447e-001  2.0254208e-001  2.2459395e-002  2.0378351e-001  1.5768598e+000  1.5768598e+000  1.5976237e+000 
-1.4250000e+001 -4.8841444e-001  1.1527492e-001  6.3730805e-004  1.1527668e-001  1.2952625e+000  1.2952625e+000  1.3019068e+000 
-1.3750000e+001 -4.8841444e-001  8.6753309e-002 -1.9652409e-006  8.6753309e-002  1.2746768e+000  1.2746768e+000  1.2784399e+000 
-1.3250000e+001 -4.8841447e-001  8.4319904e-002  5.4170938e-005  8.4319919e-002  1.1828213e+000  1.1828213e+000  1.1863762e+000 
-1.2750000e+001 -4.8841447e-001  7.8373604e-002  1.8911447e-006  7.8373604e-002  1.1359020e+000  1.1359020e+000  1.1389732e+000 
-1.2250000e+001 -4.8841447e-001  7.6863758e-002  2.0401314e-005  7.6863758e-002  1.0725040e+000  1.0725040e+000  1.0754580e+000 
-1.1750000e+001 -4.8841444e-001  7.4386820e-002  4.5561928e-006  7.4386820e-002  1.0232742e+000  1.0232742e+000  1.0260409e+000 
-1.1250000e+001 -4.8841444e-001  7.3311038e-002  9.3055751e-006  7.3311038e-002  9.7056049e-001  9.7056049e-001  9.7324777e-001 
-1.0750000e+001 -4.8841447e-001  7.2067693e-002  3.8329313e-006  7.2067693e-002  9.2300582e-001  9.2300582e-001  9.2560267e-001 
-1.0250000e+001 -4.8841444e-001  7.1363732e-002  4.9064670e-006  7.1363732e-002  8.7501144e-001  8.7501144e-001  8.7755781e-001 
-9.7500000e+000 -4.8841444e-001  7.0677944e-002  2.5954796e-006  7.0677944e-002  8.2929033e-001  8.2929033e-001  8.3178800e-001 
-9.2500000e+000 -4.8841447e-001  7.0237339e-002  2.7204858e-006  7.0237339e-002  7.8377658e-001  7.8377658e-001  7.8624320e-001 
-8.7500000e+000 -4.8841447e-001  6.9844678e-002  1.6594086e-006  6.9844678e-002  7.3936570e-001  7.3936570e-001  7.4180484e-001 
-8.2500000e+000 -4.8841447e-001  6.9573835e-002  1.5471948e-006  6.9573835e-002  6.9524091e-001  6.9524091e-001  6.9766116e-001 
-7.7500000e+000 -4.8841444e-001  6.9344535e-002  1.0458508e-006  6.9344535e-002  6.5168482e-001  6.5168482e-001  6.5408915e-001 
-7.2500000e+000 -4.8841441e-001  6.9180034e-002  8.9091543e-007  6.9180034e-002  6.0836124e-001  6.0836124e-001  6.1075419e-001 
-6.7500000e+000 -4.8841444e-001  6.9044441e-002  6.3663538e-007  6.9044441e-002  5.6534213e-001  5.6534213e-001  5.6772572e-001 
-6.2500000e+000 -4.8841447e-001  6.8945080e-002  5.4915688e-007  6.8945080e-002  5.2248752e-001  5.2248752e-001  5.2486426e-001 
-5.7500000e+000 -4.8841447e-001  6.8864562e-002  3.9221709e-007  6.8864562e-002  4.7979864e-001  4.7979864e-001  4.8216981e-001 
-5.2500000e+000 -4.8841447e-001  6.8805188e-002  3.0492777e-007  6.8805188e-002  4.3722078e-001  4.3722078e-001  4.3958786e-001 
-4.7500000e+000 -4.8841444e-001  6.8757065e-002  2.5734434e-007  6.8757065e-002  3.9473224e-001  3.9473224e-001  3.9709601e-001 
-4.2500000e+000 -4.8841441e-001  6.8722226e-002  1.8386324e-007  6.8722226e-002  3.5231912e-001  3.5231912e-001  3.5468051e-001 
-3.7500000e+000 -4.8841444e-001  6.8692438e-002  1.3854486e-007  6.8692438e-002  3.0994982e-001  3.0994982e-001  3.1230915e-001 
-3.2500000e+000 -4.8841447e-001  6.8672754e-002  1.0588955e-007  6.8672754e-002  2.6763716e-001  2.6763716e-001  2.6999512e-001 
-2.7500000e+000 -4.8841447e-001  6.8653300e-002  1.0399164e-007  6.8653300e-002  2.2533482e-001  2.2533482e-001  2.2769146e-001 
-2.2500000e+000 -4.8841447e-001  6.8644278e-002  2.1806871e-008  6.8644278e-002  1.8308830e-001  1.8308830e-001  1.8544433e-001 
-1.7500000e+000 -4.8841444e-001  6.8629608e-002  1.1059181e-007  6.8629608e-002  1.4081277e-001  1.4081277e-001  1.4316778e-001 
-1.2500000e+000 -4.8841444e-001  6.8631314e-002 -8.3763318e-008  6.8631314e-002  9.8623917e-002  9.8623917e-002  1.0097905e-001 
-7.5000000e-001 -4.8841447e-001  6.8620645e-002  1.4577196e-007  6.8620645e-002  5.6323037e-002  5.6323037e-002  5.8677431e-002 
-2.5000000e-001 -4.8841447e-001  6.8627536e-002 -3.8079804e-007  6.8627536e-002  1.4187980e-002  1.4187980e-002  1.6542850e-002 
 2.5781101e-001 -4.8833609e-001  6.8720020e-002  2.0390484e-005  6.8720020e-002 -2.8825501e-002 -2.8825501e-002 -2.6464280e-002 
 7.7370852e-001 -4.8870295e-001  6.8749361e-002 -1.1843320e-004  6.8749465e-002 -7.3048472e-002 -7.3048472e-002 -7.0685230e-002 
 1.2898365e+000 -4.8992366e-001  6.7749090e-002 -2.0200576e-004  6.7749389e-002 -1.1592099e-001 -1.1592099e-001 -1.1362600e-001 
 1.8059161e+000 -4.9088448e-001  6.8190165e-002 -6.2723135e-005  6.8190195e-002 -1.5312378e-001 -1.5312378e-001 -1.5079883e-001 
 2.3220081e+000 -4.9082351e-001  6.9829941e-002  5.2802923e-005  6.9829963e-002 -2.0103347e-001 -2.0103347e-001 -1.9859536e-001 
 2.8379831e+000 -4.9424678e-001  7.3376715e-002 -1.0795495e-003  7.3384658e-002 -2.4991961e-001 -2.4991961e-001 -2.4722695e-001 
 3.3529205e+000 -5.2047968e-001  6.5575488e-002 -5.7247146e-003  6.5824896e-002 -3.1032619e-001 -3.1032619e-001 -3.0815974e-001 
 3.8609519e+000 -5.9952378e-001  3.8709633e-002 -8.6847842e-003  3.9671920e-002 -2.8586814e-001 -2.8586814e-001 -2.8508121e-001 
 4.3507257e+000 -7.5134921e-001  5.7448242e-003 -2.2526197e-003  6.1706807e-003 -2.2622542e-001 -2.2622542e-001 -2.2620638e-001 
 4.8190479e+000 -9.6176672e-001 -8.1557948e-003  4.0679281e-003  9.1140019e-003 -1.6985679e-001 -1.6985679e-001 -1.6981526e-001 
 5.2727385e+000 -1.2017955e+000 -1.1042461e-002  6.3783657e-003  1.2752235e-002 -1.5294662e-001 -1.5294662e-001 -1.5286531e-001 
 5.7291713e+000 -1.4361085e+000 -1.4532477e-002  6.9001541e-003  1.6087418e-002 -1.3665339e-001 -1.3665339e-001 -1.3652399e-001 
 6.2016635e+000 -1.6370316e+000 -1.8076904e-002  7.3450827e-003  1.9512167e-002 -1.2985379e-001 -1.2985379e-001 -1.2966342e-001 
 6.6921778e+000 -1.7891564e+000 -2.3599580e-002  5.9019225e-003  2.4326382e-002 -1.1797001e-001 -1.1797001e-001 -1.1767413e-001 
 7.1974792e+000 -1.8888317e+000 -2.8957132e-002  5.0768517e-003  2.9398808e-002 -1.0895772e-001 -1.0895772e-001 -1.0852557e-001 
 7.7101431e+000 -1.9395959e+000 -3.6869839e-002  2.2306044e-003  3.6937252e-002 -9.3363568e-002 -9.3363568e-002 -9.2681386e-002 
 8.2258377e+000 -1.9525100e+000 -3.1019527e-002  1.4322800e-004  3.1019859e-002 -6.9405861e-002 -6.9405861e-002 -6.8924747e-002 
 8.7419205e+000 -1.9537168e+000 -4.7998228e-003 -9.8379620e-004  4.8996075e-003 -4.3439586e-002 -4.3439586e-002 -4.3427583e-002 
 9.2624998e+000 -1.9536575e+000  3.2814831e-002 -1.2245957e-003  3.2837674e-002 -2.9479377e-002 -2.9479377e-002 -2.8940221e-002 
 9.7875004e+000 -1.9536575e+000  6.7454889e-002 -7.5769803e-004  6.7459144e-002 -3.1863671e-002 -3.1863671e-002 -2.9588303e-002 
 1.0312500e+001 -1.9536575e+000  8.8834532e-002 -1.4540843e-004  8.8834651e-002 -4.5085635e-002 -4.5085635e-002 -4.1139837e-002 
 1.0837500e+001 -1.9536575e+000  9.7772419e-002  1.6235963e-004  9.7772554e-002 -6.0508799e-002 -6.0508799e-002 -5.5729061e-002 
 1.1362500e+001 -1.9536575e+000  9.7700112e-002  2.5540253e-004  9.7700447e-002 -7.3817536e-002 -7.3817536e-002 -6.9044851e-002 
 1.1887500e+001 -1.9536575e+000  9.3291909e-002  3.5283488e-004  9.3292579e-002 -8.3677284e-002 -8.3677284e-002 -7.9325534e-002 
 1.2412500e+001 -1.9536575e+000  8.6397476e-002  2.9050212e-004  8.6397968e-002 -8.9373559e-002 -8.9373559e-002 -8.5641257e-002 
 1.2937500e+001 -1.9536575e+000  7.8942657e-002  2.4859494e-004  7.8943051e-002 -9.2143968e-002 -9.2143968e-002 -8.9027964e-002 
 1.3462500e+001 -1.9536575e+000  7.1318559e-002  2.2657480e-004  7.1318917e-002 -9.2672236e-002 -9.2672236e-002 -9.0129040e-002 
 1.3987500e+001 -1.9536575e+000  6.3566171e-002  2.1359332e-004  6.3566528e-002 -9.1346875e-002 -9.1346875e-002 -8.9326523e-002 
 1.4512500e+001 -1.9536575e+000  5.5659860e-002  2.0590809e-004  5.5660240e-002 -8.8452682e-002 -8.8452682e-002 -8.6903654e-002 
 1.5037500e+001 -1.9536575e+000  4.7536962e-002  2.0030719e-004  4.7537383e-002 -8.4208556e-002 -8.4208556e-002 -8.3078653e-002 
 1.5562500e+001 -1.9536575e+000  3.9171956e-002  1.9108248e-004  3.9172422e-002 -7.8803226e-002 -7.8803226e-002 -7.8035988e-002 
 1.6087496e+001 -1.9536575e+000  3.0661792e-002  1.7408260e-004  3.0662285e-002 -7.2465226e-002 -7.2465226e-002 -7.1995139e-002 
 1.6612492e+001 -1.9536575e+000  2.2196721e-002  1.4805865e-004  2.2197215e-002 -6.5514691e-002 -6.5514691e-002 -6.5268330e-002 
 1.7137495e+001 -1.9536575e+000  1.4176112e-002  1.0769819e-004  1.4176521e-002 -5.8326643e-002 -5.8326643e-002 -5.8226157e-002 
 1.7662498e+001 -1.9536575e+000  7.0847603e-003  6.6043285e-005  7.0850682e-003 -5.1403828e-002 -5.1403828e-002 -5.1378731e-002 
 1.8187500e+001 -1.9536577e+000  1.3922636e-003  2.4078705e-005  1.3924717e-003 -4.5157216e-002 -4.5157216e-002 -4.5156248e-002 
 1.8712502e+001 -1.9536577e+000 -2.6413251e-003 -6.4011965e-006  2.6413328e-003 -3.9903559e-002 -3.9903559e-002 -3.9900072e-002 
 1.9237499e+001 -1.9536575e+000 -5.1099537e-003 -2.4204537e-005  5.1100110e-003 -3.5726339e-002 -3.5726339e-002 -3.5713281e-002 
 1.9762501e+001 -1.9536575e+000 -6.3443696e-003 -2.9856690e-005  6.3444399e-003 -3.2540645e-002 -3.2540645e-002 -3.2520518e-002 
 2.0287498e+001 -1.9536575e+000 -6.7632552e-003 -2.3157516e-005  6.7632948e-003 -3.0147757e-002 -3.0147757e-002 -3.0124886e-002 
 2.0812500e+001 -1.9536575e+000 -6.7423899e-003 -1.8029428e-005  6.7424141e-003 -2.8339984e-002 -2.8339984e-002 -2.8317254e-002 
 2.1337502e+001 -1.9536575e+000 -6.5958505e-003 -1.3914745e-005  6.5958654e-003 -2.6940724e-002 -2.6940724e-002 -2.6918972e-002 
 2.1862499e+001 -1.9536575e+000 -6.5127085e-003 -5.0664153e-006  6.5127104e-003 -2.5790347e-002 -2.5790347e-002 -2.5769139e-002 
 2.2387501e+001 -1.9536575e+000 -6.6000074e-003  3.4582229e-007  6.6000074e-003 -2.4789665e-002 -2.4789665e-002 -2.4767885e-002 
 2.2912498e+001 -1.9536577e+000 -6.8585100e-003  5.0143426e-006  6.8585118e-003 -2.3825575e-002 -2.3825575e-002 -2.3802055e-002 
 2.3437500e+001 -1.9536577e+000 -7.2672251e-003  1.1172307e-005  7.2672334e-003 -2.2863073e-002 -2.2863073e-002 -2.2836667e-002 
 2.3962502e+001 -1.9536575e+000 -7.8079603e-003  1.4441243e-005  7.8079738e-003 -2.1829592e-002 -2.1829592e-002 -2.1799110e-002 
 2.4487499e+001 -1.9536575e+000 -8.4259994e-003  1.8158909e-005  8.4260190e-003 -2.0699527e-002 -2.0699527e-002 -2.0664029e-002 
 2.5012501e+001 -1.9536575e+000 -9.0233563e-003  1.5915171e-005  9.0233702e-003 -1.9412192e-002 -1.9412192e-002 -1.9371482e-002 
 2.5537498e+001 -1.9536575e+000 -9.6189231e-003  2.0725949e-005  9.6189454e-003 -1.8012706e-002 -1.8012706e-002 -1.7966444e-002 
 2.6062500e+001 -1.9536577e+000 -1.0132076e-002  1.4142744e-005  1.0132086e-002 -1.6392976e-002 -1.6392976e-002 -1.6341647e-002 
 2.6587502e+001 -1.9536577e+000 -1.0549347e-002  1.8147533e-005  1.0549363e-002 -1.4660371e-002 -1.4660371e-002 -1.4604727e-002 
 2.7112499e+001 -1.9536575e+000 -1.0868528e-002  1.1541742e-005  1.0868534e-002 -1.2703498e-002 -1.2703498e-002 -1.2644435e-002 
 2.7637501e+001 -1.9536575e+000 -1.0919778e-002  3.0181677e-006  1.0919778e-002 -1.0597310e-002 -1.0597310e-002 -1.0537690e-002 
 2.8162498e+001 -1.9536575e+000 -1.1095735e-002  1.9410827e-005  1.1095752e-002 -8.4368857e-003 -8.4368857e-003 -8.3753280e-003 
 2.8687500e+001 -1.9536575e+000 -1.0432160e-002 -3.8010421e-005  1.0432229e-002 -5.7930597e-003 -5.7930597e-003 -5.7386439e-003 
 2.9212502e+001 -1.9536575e+000 -1.0950434e-002  9.3193543e-005  1.0950831e-002 -3.9410442e-003 -3.9410442e-003 -3.8810838e-003 
 2.9737499e+001 -1.9536575e+000 -7.6130689e-003 -1.0937334e-004  7.6138545e-003  1.6606785e-004  1.6606785e-004  1.9505325e-004 
 3.0000000e+001 -1.9536575e+000 -7.6130708e-003 -1.0937427e-004  7.6138563e-003 -2.8979422e-005 -2.8979422e-005  5.9821810e-009 
-1.5000000e+001 -4.6466404e-001  1.0000000e+000  0.0000000e+000  1.0000000e+000  1.7052462e+000  1.7052462e+000  2.2052462e+000 
-1.4750000e+001 -4.6466404e-001  4.9666268e-001  5.5968914e-002  4.9980628e-001  1.5691320e+000  1.5691320e+000  1.6940352e+000 
-1.4250000e+001 -4.6466404e-001  3.3410510e-001  5.3678211e-003  3.3414823e-001  1.2969038e+000  1.2969038e+000  1.3527313e+000 
-1.3750000e+001 -4.6466404e-001  2.5787619e-001  1.1328094e-003  2.5787866e-001  1.2751790e+000  1.2751790e+000  1.3084297e+000 
-1.3250000e+001 -4.6466404e-001  2.4904709e-001  5.1092415e-004  2.4904761e-001  1.1829784e+000  1.1829784e+000  1.2139907e+000 
-1.2750000e+001 -4.6466404e-001  2.3252155e-001  2.8393875e-004  2.3252173e-001  1.1360234e+000  1.1360234e+000  1.1630566e+000 
-1.2250000e+001 -4.6466404e-001  2.2781518e-001  2.1844910e-004  2.2781529e-001  1.0725738e+000  1.0725738e+000  1.0985237e+000 
-1.1750000e+001 -4.6466401e-001  2.2087283e-001  1.4735509e-004  2.2087288e-001  1.0233325e+000  1.0233325e+000  1.0477248e+000 
-1.1250000e+001 -4.6466401e-001  2.1769986e-001  1.1755568e-004  2.1769989e-001  9.7060001e-001  9.7060001e-001  9.9429661e-001 
-1.0750000e+001 -4.6466404e-001  2.1418101e-001  8.4912484e-005  2.1418102e-001  9.2303795e-001  9.2303795e-001  9.4597471e-001 
-1.0250000e+001 -4.6466401e-001  2.1214461e-001  6.7916306e-005  2.1214463e-001  8.7503481e-001  8.7503481e-001  8.9753747e-001 
-9.7500000e+000 -4.6466401e-001  2.1019757e-001  5.0329687e-005  2.1019757e-001  8.2930893e-001  8.2930893e-001  8.5140043e-001 
-9.2500000e+000 -4.6466404e-001  2.0893194e-001  3.9927065e-005  2.0893194e-001  7.8379053e-001  7.8379053e-001  8.0561680e-001 
-8.7500000e+000 -4.6466404e-001  2.0781560e-001  3.0125680e-005  2.0781560e-001  7.3937666e-001  7.3937666e-001  7.6097035e-001 
-8.2500000e+000 -4.6466404e-001  2.0704021e-001  2.3689281e-005  2.0704021e-001  6.9524920e-001  6.9524920e-001  7.1668202e-001 
-7.7500000e+000 -4.6466401e-001  2.0638771e-001  1.8063258e-005  2.0638771e-001  6.5169132e-001  6.5169132e-001  6.7298925e-001 
-7.2500000e+000 -4.6466395e-001  2.0591763e-001  1.4102741e-005  2.0591763e-001  6.0836625e-001  6.0836625e-001  6.2956727e-001 
-6.7500000e+000 -4.6466401e-001  2.0553173e-001  1.0835574e-005  2.0553173e-001  5.6534600e-001  5.6534600e-001  5.8646762e-001 
-6.2500000e+000 -4.6466404e-001  2.0524828e-001  8.3913001e-006  2.0524828e-001  5.2249050e-001  5.2249050e-001  5.4355395e-001 
-5.7500000e+000 -4.6466404e-001  2.0501898e-001  6.4817918e-006  2.0501898e-001  4.7980097e-001  4.7980097e-001  5.0081736e-001 
-5.2500000e+000 -4.6466404e-001  2.0484972e-001  4.9971227e-006  2.0484972e-001  4.3722254e-001  4.3722254e-001  4.5820424e-001 
-4.7500000e+000 -4.6466404e-001  2.0471235e-001  3.8805815e-006  2.0471235e-001  3.9473361e-001  3.9473361e-001  4.1568717e-001 
-4.2500000e+000 -4.6466401e-001  2.0461284e-001  2.9830437e-006  2.0461284e-001  3.5232016e-001  3.5232016e-001  3.7325338e-001 
-3.7500000e+000 -4.6466404e-001  2.0452818e-001  2.3129955e-006  2.0452818e-001  3.0995065e-001  3.0995065e-001  3.3086655e-001 
-3.2500000e+000 -4.6466404e-001  2.0447238e-001  1.7510690e-006  2.0447238e-001  2.6763779e-001  2.6763779e-001  2.8854227e-001 
-2.7500000e+000 -4.6466404e-001  2.0441692e-001  1.4121490e-006  2.0441692e-001  2.2533530e-001  2.2533530e-001  2.4622844e-001 
-2.2500000e+000 -4.6466404e-001  2.0439099e-001  9.7304655e-007  2.0439099e-001  1.8308869e-001  1.8308869e-001  2.0397653e-001 
-1.7500000e+000 -4.6466404e-001  2.0434934e-001  8.3251234e-007  2.0434934e-001  1.4081299e-001  1.4081299e-001  1.6169232e-001 
-1.2500000e+000 -4.6466404e-001  2.0435311e-001  6.5855495e-008  2.0435311e-001  9.8624058e-002  9.8624058e-002  1.1950415e-001 
-7.5000000e-001 -4.6466404e-001  2.0432399e-001  6.0793542e-007  2.0432399e-001  5.6323119e-002  5.6323119e-002  7.7197269e-002 
-2.4999999e-001 -4.6466404e-001  2.0434248e-001 -4.5625957e-006  2.0434248e-001  1.4186665e-002  1.4186665e-002  3.5064589e-002 
 2.5781101e-001 -4.6458951e-001  2.0457870e-001  5.4594024e-005  2.0457870e-001 -2.8829871e-002 -2.8829871e-002 -7.9036476e-003 
 7.7370852e-001 -4.6493852e-001  2.0470826e-001 -3.0928690e-004  2.0470850e-001 -7.3024973e-002 -7.3024973e-002 -5.2072190e-002 
 1.2898365e+000 -4.6609986e-001  2.0203876e-001 -5.6446099e-004  2.0203955e-001 -1.1589662e-001 -1.1589662e-001 -9.5486626e-002 
 1.8059161e+000 -4.6701396e-001  2.0308404e-001 -2.5489277e-004  2.0308420e-001 -1.5315257e-001 -1.5315257e-001 -1.3253097e-001 
 2.3220081e+000 -4.6695596e-001  2.0736973e-001 -2.6700520e-005  2.0736973e-001 -2.0112106e-001 -2.0112106e-001 -1.7961995e-001 
 2.8379831e+000 -4.7021273e-001  2.1721710e-001 -2.9541496e-003  2.1723719e-001 -2.4979205e-001 -2.4979205e-001 -2.2619605e-001 
 3.3529205e+000 -4.9517003e-001  1.9789918e-001 -1.5465634e-002  1.9850257e-001 -3.0950117e-001 -3.0950117e-001 -2.8979954e-001 
 3.8609519e+000 -5.7037044e-001  1.2655200e-001 -2.4819670e-002  1.2896287e-001 -2.8509197e-001 -2.8509197e-001 -2.7677625e-001 
 4.3507252e+000 -7.1481287e-001  3.2870241e-002 -9.6196542e-003  3.4248948e-002 -2.2678906e-001 -2.2678906e-001 -2.2620256e-001 
 4.8190479e+000 -9.1499841e-001 -1.2468552e-002  7.5588929e-003  1.4580866e-002 -1.7095315e-001 -1.7095315e-001 -1.7084685e-001 
 5.2727385e+000 -1.1433553e+000 -2.5483122e-002  1.5346995e-002  2.9747602e-002 -1.5379369e-001 -1.5379369e-001 -1.5335123e-001 
 5.7291713e+000 -1.3662740e+000 -3.5928395e-002  1.7456206e-002  3.9944571e-002 -1.3726847e-001 -1.3726847e-001 -1.3647069e-001 
 6.2016630e+000 -1.5574265e+000 -4.5121845e-002  1.9086702e-002  4.8992682e-002 -1.3037112e-001 -1.3037112e-001 -1.2917098e-001 
 6.6921773e+000 -1.7021543e+000 -5.7409994e-002  1.5144021e-002  5.9373807e-002 -1.1835241e-001 -1.1835241e-001 -1.1658979e-001 
 7.1974792e+000 -1.7969828e+000 -6.7982174e-002  1.2869406e-002  6.9189578e-002 -1.0932658e-001 -1.0932658e-001 -1.0693298e-001 
 7.7101431e+000 -1.8452783e+000 -7.8188017e-002  3.9805765e-003  7.8289278e-002 -9.3736820e-002 -9.3736820e-002 -9.0672217e-002 
 8.2258377e+000 -1.8575640e+000 -5.0081629e-002 -5.1718941e-003  5.0347969e-002 -7.0069537e-002 -7.0069537e-002 -6.8802081e-002 
 8.7419205e+000 -1.8587122e+000  2.0620191e-002 -1.1402504e-002  2.3562882e-002 -4.4382166e-002 -4.4382166e-002 -4.4104561e-002 