Variables = "x","y", "Velocity_x", "Velocity_y", "Velocity_whole value", "Pressure", "Absolute pressure", "Total pressure"
Zone i=155, j=42
 0.0000000e+000  0.0000000e+000  0.0000000e+000  0.0000000e+000  0.0000000e+000  4.5104105e-002  4.5104105e-002  4.5104105e-002 
 6.5482751e-004  0.0000000e+000  0.0000000e+000  0.0000000e+000  0.0000000e+000  4.4021297e-002  4.4021297e-002  4.4021297e-002 
 1.9743210e-003  0.0000000e+000  0.0000000e+000  0.0000000e+000  0.0000000e+000  4.1839428e-002  4.1839428e-002  4.1839428e-002 
 3.3136094e-003  0.0000000e+000  0.0000000e+000  0.0000000e+000  0.0000000e+000  4.1688118e-002  4.1688118e-002  4.1688118e-002 
 4.6729776e-003  0.0000000e+000  0.0000000e+000  0.0000000e+000  0.0000000e+000  4.1582353e-002  4.1582353e-002  4.1582353e-002 
 6.0527408e-003  0.0000000e+000  0.0000000e+000  0.0000000e+000  0.0000000e+000  4.1511323e-002  4.1511323e-002  4.1511323e-002 
 7.4531985e-003  0.0000000e+000  0.0000000e+000  0.0000000e+000  0.0000000e+000  4.1463166e-002  4.1463166e-002  4.1463166e-002 
 8.8746576e-003  0.0000000e+000  0.0000000e+000  0.0000000e+000  0.0000000e+000  4.1425254e-002  4.1425254e-002  4.1425254e-002 
 1.0317443e-002  0.0000000e+000  0.0000000e+000  0.0000000e+000  0.0000000e+000  4.1394584e-002  4.1394584e-002  4.1394584e-002 
 1.1781875e-002  0.0000000e+000  0.0000000e+000  0.0000000e+000  0.0000000e+000  4.1368548e-002  4.1368548e-002  4.1368548e-002 
 1.3268265e-002  0.0000000e+000  0.0000000e+000  0.0000000e+000  0.0000000e+000  4.1345630e-002  4.1345630e-002  4.1345630e-002 
 1.4776950e-002  0.0000000e+000  0.0000000e+000  0.0000000e+000  0.0000000e+000  4.1324921e-002  4.1324921e-002  4.1324921e-002 
 1.6308270e-002  0.0000000e+000  0.0000000e+000  0.0000000e+000  0.0000000e+000  4.1305788e-002  4.1305788e-002  4.1305788e-002 
 1.7862566e-002  0.0000000e+000  0.0000000e+000  0.0000000e+000  0.0000000e+000  4.1287784e-002  4.1287784e-002  4.1287784e-002 
 1.9440170e-002  0.0000000e+000  0.0000000e+000  0.0000000e+000  0.0000000e+000  4.1270602e-002  4.1270602e-002  4.1270602e-002 
 2.1041431e-002  0.0000000e+000  0.0000000e+000  0.0000000e+000  0.0000000e+000  4.1254018e-002  4.1254018e-002  4.1254018e-002 
 2.2666715e-002  0.0000000e+000  0.0000000e+000  0.0000000e+000  0.0000000e+000  4.1237876e-002  4.1237876e-002  4.1237876e-002 
 2.4316374e-002  0.0000000e+000  0.0000000e+000  0.0000000e+000  0.0000000e+000  4.1222047e-002  4.1222047e-002  4.1222047e-002 
 2.5990784e-002  0.0000000e+000  0.0000000e+000  0.0000000e+000  0.0000000e+000  4.1206442e-002  4.1206442e-002  4.1206442e-002 
 2.7690321e-002  0.0000000e+000  0.0000000e+000  0.0000000e+000  0.0000000e+000  4.1190997e-002  4.1190997e-002  4.1190997e-002 
 2.9415339e-002  0.0000000e+000  0.0000000e+000  0.0000000e+000  0.0000000e+000  4.1175660e-002  4.1175660e-002  4.1175660e-002 
 3.1166246e-002  0.0000000e+000  0.0000000e+000  0.0000000e+000  0.0000000e+000  4.1160390e-002  4.1160390e-002  4.1160390e-002 
 3.2943405e-002  0.0000000e+000  0.0000000e+000  0.0000000e+000  0.0000000e+000  4.1145168e-002  4.1145168e-002  4.1145168e-002 
 3.4747213e-002  0.0000000e+000  0.0000000e+000  0.0000000e+000  0.0000000e+000  4.1129958e-002  4.1129958e-002  4.1129958e-002 
 3.6578096e-002  0.0000000e+000  0.0000000e+000  0.0000000e+000  0.0000000e+000  4.1114759e-002  4.1114759e-002  4.1114759e-002 
 3.8436431e-002  0.0000000e+000  0.0000000e+000  0.0000000e+000  0.0000000e+000  4.1099552e-002  4.1099552e-002  4.1099552e-002 
 4.0322646e-002  0.0000000e+000  0.0000000e+000  0.0000000e+000  0.0000000e+000  4.1084342e-002  4.1084342e-002  4.1084342e-002 
 4.2237155e-002  0.0000000e+000  0.0000000e+000  0.0000000e+000  0.0000000e+000  4.1069109e-002  4.1069109e-002  4.1069109e-002 
 4.4180375e-002  0.0000000e+000  0.0000000e+000  0.0000000e+000  0.0000000e+000  4.1053854e-002  4.1053854e-002  4.1053854e-002 
 4.6152748e-002  0.0000000e+000  0.0000000e+000  0.0000000e+000  0.0000000e+000  4.1038580e-002  4.1038580e-002  4.1038580e-002 
 4.8154704e-002  0.0000000e+000  0.0000000e+000  0.0000000e+000  0.0000000e+000  4.1023277e-002  4.1023277e-002  4.1023277e-002 
 5.0186686e-002  0.0000000e+000  0.0000000e+000  0.0000000e+000  0.0000000e+000  4.1007947e-002  4.1007947e-002  4.1007947e-002 
 5.2249148e-002  0.0000000e+000  0.0000000e+000  0.0000000e+000  0.0000000e+000  4.0992588e-002  4.0992588e-002  4.0992588e-002 
 5.4342553e-002  0.0000000e+000  0.0000000e+000  0.0000000e+000  0.0000000e+000  4.0977199e-002  4.0977199e-002  4.0977199e-002 
 5.6467362e-002  0.0000000e+000  0.0000000e+000  0.0000000e+000  0.0000000e+000  4.0961780e-002  4.0961780e-002  4.0961780e-002 
 5.8624037e-002  0.0000000e+000  0.0000000e+000  0.0000000e+000  0.0000000e+000  4.0946331e-002  4.0946331e-002  4.0946331e-002 
 6.0813062e-002  0.0000000e+000  0.0000000e+000  0.0000000e+000  0.0000000e+000  4.0930852e-002  4.0930852e-002  4.0930852e-002 
 6.3034929e-002  0.0000000e+000  0.0000000e+000  0.0000000e+000  0.0000000e+000  4.0915340e-002  4.0915340e-002  4.0915340e-002 
 6.5290131e-002  0.0000000e+000  0.0000000e+000  0.0000000e+000  0.0000000e+000  4.0899787e-002  4.0899787e-002  4.0899787e-002 
 6.7579135e-002  0.0000000e+000  0.0000000e+000  0.0000000e+000  0.0000000e+000  4.0884208e-002  4.0884208e-002  4.0884208e-002 
 6.9902480e-002  0.0000000e+000  0.0000000e+000  0.0000000e+000  0.0000000e+000  4.0868580e-002  4.0868580e-002  4.0868580e-002 
 7.2260678e-002  0.0000000e+000  0.0000000e+000  0.0000000e+000  0.0000000e+000  4.0852915e-002  4.0852915e-002  4.0852915e-002 
 7.4654251e-002  0.0000000e+000  0.0000000e+000  0.0000000e+000  0.0000000e+000  4.0837213e-002  4.0837213e-002  4.0837213e-002 
 7.7083722e-002  0.0000000e+000  0.0000000e+000  0.0000000e+000  0.0000000e+000  4.0821474e-002  4.0821474e-002  4.0821474e-002 
 7.9549640e-002  0.0000000e+000  0.0000000e+000  0.0000000e+000  0.0000000e+000  4.0805690e-002  4.0805690e-002  4.0805690e-002 
 8.2052551e-002  0.0000000e+000  0.0000000e+000  0.0000000e+000  0.0000000e+000  4.0789869e-002  4.0789869e-002  4.0789869e-002 
 8.4593005e-002  0.0000000e+000  0.0000000e+000  0.0000000e+000  0.0000000e+000  4.0774003e-002  4.0774003e-002  4.0774003e-002 
 8.7171569e-002  0.0000000e+000  0.0000000e+000  0.0000000e+000  0.0000000e+000  4.0758092e-002  4.0758092e-002  4.0758092e-002 
 8.9788824e-002  0.0000000e+000  0.0000000e+000  0.0000000e+000  0.0000000e+000  4.0742144e-002  4.0742144e-002  4.0742144e-002 
 9.2445329e-002  0.0000000e+000  0.0000000e+000  0.0000000e+000  0.0000000e+000  4.0726159e-002  4.0726159e-002  4.0726159e-002 
 9.5141679e-002  0.0000000e+000  0.0000000e+000  0.0000000e+000  0.0000000e+000  4.0710136e-002  4.0710136e-002  4.0710136e-002 
 9.7878471e-002  0.0000000e+000  0.0000000e+000  0.0000000e+000  0.0000000e+000  4.0694084e-002  4.0694084e-002  4.0694084e-002 
 1.0065633e-001  0.0000000e+000  0.0000000e+000  0.0000000e+000  0.0000000e+000  4.0678006e-002  4.0678006e-002  4.0678006e-002 
 1.0347585e-001  0.0000000e+000  0.0000000e+000  0.0000000e+000  0.0000000e+000  4.0661920e-002  4.0661920e-002  4.0661920e-002 
 1.0633765e-001  0.0000000e+000  0.0000000e+000  0.0000000e+000  0.0000000e+000  4.0645823e-002  4.0645823e-002  4.0645823e-002 
 1.0924239e-001  0.0000000e+000  0.0000000e+000  0.0000000e+000  0.0000000e+000  4.0629745e-002  4.0629745e-002  4.0629745e-002 
 1.1219070e-001  0.0000000e+000  0.0000000e+000  0.0000000e+000  0.0000000e+000  4.0613692e-002  4.0613692e-002  4.0613692e-002 
 1.1518320e-001  0.0000000e+000  0.0000000e+000  0.0000000e+000  0.0000000e+000  4.0597696e-002  4.0597696e-002  4.0597696e-002 
 1.1822065e-001  0.0000000e+000  0.0000000e+000  0.0000000e+000  0.0000000e+000  4.0581767e-002  4.0581767e-002  4.0581767e-002 
 1.2130365e-001  0.0000000e+000  0.0000000e+000  0.0000000e+000  0.0000000e+000  4.0565968e-002  4.0565968e-002  4.0565968e-002 
 1.2443285e-001  0.0000000e+000  0.0000000e+000  0.0000000e+000  0.0000000e+000  4.0550333e-002  4.0550333e-002  4.0550333e-002 
 1.2760904e-001  0.0000000e+000  0.0000000e+000  0.0000000e+000  0.0000000e+000  4.0534917e-002  4.0534917e-002  4.0534917e-002 
 1.3083290e-001  0.0000000e+000  0.0000000e+000  0.0000000e+000  0.0000000e+000  4.0519785e-002  4.0519785e-002  4.0519785e-002 
 1.3410506e-001  0.0000000e+000  0.0000000e+000  0.0000000e+000  0.0000000e+000  4.0505033e-002  4.0505033e-002  4.0505033e-002 
 1.3742630e-001  0.0000000e+000  0.0000000e+000  0.0000000e+000  0.0000000e+000  4.0490773e-002  4.0490773e-002  4.0490773e-002 
 1.4079735e-001  0.0000000e+000  0.0000000e+000  0.0000000e+000  0.0000000e+000  4.0477116e-002  4.0477116e-002  4.0477116e-002 
 1.4421895e-001  0.0000000e+000  0.0000000e+000  0.0000000e+000  0.0000000e+000  4.0464234e-002  4.0464234e-002  4.0464234e-002 
 1.4769191e-001  0.0000000e+000  0.0000000e+000  0.0000000e+000  0.0000000e+000  4.0452324e-002  4.0452324e-002  4.0452324e-002 
 1.5121695e-001  0.0000000e+000  0.0000000e+000  0.0000000e+000  0.0000000e+000  4.0441602e-002  4.0441602e-002  4.0441602e-002 
 1.5479490e-001  0.0000000e+000  0.0000000e+000  0.0000000e+000  0.0000000e+000  4.0432382e-002  4.0432382e-002  4.0432382e-002 
 1.5842649e-001  0.0000000e+000  0.0000000e+000  0.0000000e+000  0.0000000e+000  4.0424954e-002  4.0424954e-002  4.0424954e-002 
 1.6211255e-001  0.0000000e+000  0.0000000e+000  0.0000000e+000  0.0000000e+000  4.0419720e-002  4.0419720e-002  4.0419720e-002 
 1.6585389e-001  0.0000000e+000  0.0000000e+000  0.0000000e+000  0.0000000e+000  4.0417094e-002  4.0417094e-002  4.0417094e-002 
 1.6965136e-001  0.0000000e+000  0.0000000e+000  0.0000000e+000  0.0000000e+000  4.0417559e-002  4.0417559e-002  4.0417559e-002 
 1.7350581e-001  0.0000000e+000  0.0000000e+000  0.0000000e+000  0.0000000e+000  4.0421542e-002  4.0421542e-002  4.0421542e-002 
 1.7741805e-001  0.0000000e+000  0.0000000e+000  0.0000000e+000  0.0000000e+000  4.0429663e-002  4.0429663e-002  4.0429663e-002 
 1.8138894e-001  0.0000000e+000  0.0000000e+000  0.0000000e+000  0.0000000e+000  4.0441789e-002  4.0441789e-002  4.0441789e-002 
 1.8541944e-001  0.0000000e+000  0.0000000e+000  0.0000000e+000  0.0000000e+000  4.0459219e-002  4.0459219e-002  4.0459219e-002 
 1.8951041e-001  0.0000000e+000  0.0000000e+000  0.0000000e+000  0.0000000e+000  4.0477898e-002  4.0477898e-002  4.0477898e-002 
 1.9366275e-001  0.0000000e+000  0.0000000e+000  0.0000000e+000  0.0000000e+000  4.0506292e-002  4.0506292e-002  4.0506292e-002 
 1.9787720e-001  0.0000000e+000  0.0000000e+000  0.0000000e+000  0.0000000e+000  4.0517669e-002  4.0517669e-002  4.0517669e-002 
 2.0054224e-001  3.1407855e-003  0.0000000e+000  0.0000000e+000  0.0000000e+000  4.0602237e-002  4.0602237e-002  4.0602237e-002 
 2.0258716e-001  9.0828408e-003  0.0000000e+000  0.0000000e+000  0.0000000e+000  4.0586956e-002  4.0586956e-002  4.0586956e-002 
 2.0622450e-001  1.4245390e-002  0.0000000e+000  0.0000000e+000  0.0000000e+000  3.9569788e-002  3.9569788e-002  3.9569788e-002 
 2.1089730e-001  1.8534310e-002  0.0000000e+000  0.0000000e+000  0.0000000e+000  3.7809487e-002  3.7809487e-002  3.7809487e-002 
 2.1622550e-001  2.2003690e-002  0.0000000e+000  0.0000000e+000  0.0000000e+000  3.5579976e-002  3.5579976e-002  3.5579976e-002 
 2.2196665e-001  2.4748813e-002  0.0000000e+000  0.0000000e+000  0.0000000e+000  3.2735545e-002  3.2735545e-002  3.2735545e-002 
 2.2797640e-001  2.6855219e-002  0.0000000e+000  0.0000000e+000  0.0000000e+000  2.9075198e-002  2.9075198e-002  2.9075198e-002 
 2.3416194e-001  2.8386306e-002  0.0000000e+000  0.0000000e+000  0.0000000e+000  2.4598027e-002  2.4598027e-002  2.4598027e-002 
 2.4045685e-001  2.9384760e-002  0.0000000e+000  0.0000000e+000  0.0000000e+000  1.9743484e-002  1.9743484e-002  1.9743484e-002 
 2.4681050e-001  2.9877575e-002  0.0000000e+000  0.0000000e+000  0.0000000e+000  1.5369087e-002  1.5369087e-002  1.5369087e-002 
 2.5318170e-001  2.9877875e-002  0.0000000e+000  0.0000000e+000  0.0000000e+000  1.2393303e-002  1.2393303e-002  1.2393303e-002 
 2.5953531e-001  2.9385675e-002  0.0000000e+000  0.0000000e+000  0.0000000e+000  1.1282986e-002  1.1282986e-002  1.1282986e-002 
 2.6583216e-001  2.8387396e-002  0.0000000e+000  0.0000000e+000  0.0000000e+000  1.1815755e-002  1.1815755e-002  1.1815755e-002 
 2.7201965e-001  2.6856374e-002  0.0000000e+000  0.0000000e+000  0.0000000e+000  1.3265465e-002  1.3265465e-002  1.3265465e-002 
 2.7802944e-001  2.4750415e-002  0.0000000e+000  0.0000000e+000  0.0000000e+000  1.4770892e-002  1.4770892e-002  1.4770892e-002 
 2.8377065e-001  2.2005860e-002  0.0000000e+000  0.0000000e+000  0.0000000e+000  1.5774090e-002  1.5774090e-002  1.5774090e-002 
 2.8909880e-001  1.8537305e-002  0.0000000e+000  0.0000000e+000  0.0000000e+000  1.6242988e-002  1.6242988e-002  1.6242988e-002 
 2.9377165e-001  1.4249750e-002  0.0000000e+000  0.0000000e+000  0.0000000e+000  1.6420206e-002  1.6420206e-002  1.6420206e-002 
 2.9741019e-001  9.0878857e-003  0.0000000e+000  0.0000000e+000  0.0000000e+000  1.6474746e-002  1.6474746e-002  1.6474746e-002 
 2.9945701e-001  3.1432156e-003  0.0000000e+000  0.0000000e+000  0.0000000e+000  1.6512439e-002  1.6512439e-002  1.6512439e-002 
 3.0312502e-001  0.0000000e+000  0.0000000e+000  0.0000000e+000  0.0000000e+000  1.6475486e-002  1.6475486e-002  1.6475486e-002 
 3.0937499e-001  0.0000000e+000  0.0000000e+000  0.0000000e+000  0.0000000e+000  1.6480394e-002  1.6480394e-002  1.6480394e-002 
 3.1562501e-001  0.0000000e+000  0.0000000e+000  0.0000000e+000  0.0000000e+000  1.6476065e-002  1.6476065e-002  1.6476065e-002 
 3.2187498e-001  0.0000000e+000  0.0000000e+000  0.0000000e+000  0.0000000e+000  1.6482849e-002  1.6482849e-002  1.6482849e-002 
 3.2812500e-001  0.0000000e+000  0.0000000e+000  0.0000000e+000  0.0000000e+000  1.6479209e-002  1.6479209e-002  1.6479209e-002 
 3.3437502e-001  0.0000000e+000  0.0000000e+000  0.0000000e+000  0.0000000e+000  1.6533593e-002  1.6533593e-002  1.6533593e-002 
 3.4062499e-001  0.0000000e+000  0.0000000e+000  0.0000000e+000  0.0000000e+000  1.6582709e-002  1.6582709e-002  1.6582709e-002 
 3.4687501e-001  0.0000000e+000  0.0000000e+000  0.0000000e+000  0.0000000e+000  1.6787780e-002  1.6787780e-002  1.6787780e-002 
 3.5054225e-001  3.1407641e-003  0.0000000e+000  0.0000000e+000  0.0000000e+000  1.6440954e-002  1.6440954e-002  1.6440954e-002 
 3.5258716e-001  9.0828044e-003  0.0000000e+000  0.0000000e+000  0.0000000e+000  1.6420873e-002  1.6420873e-002  1.6420873e-002 
 3.5622448e-001  1.4245365e-002  0.0000000e+000  0.0000000e+000  0.0000000e+000  1.8380033e-002  1.8380033e-002  1.8380033e-002 
 3.6089730e-001  1.8534295e-002  0.0000000e+000  0.0000000e+000  0.0000000e+000  1.9281078e-002  1.9281078e-002  1.9281078e-002 
 3.6622545e-001  2.2003680e-002  0.0000000e+000  0.0000000e+000  0.0000000e+000  1.7468812e-002  1.7468812e-002  1.7468812e-002 
 3.7196660e-001  2.4748810e-002  0.0000000e+000  0.0000000e+000  0.0000000e+000  1.4186739e-002  1.4186739e-002  1.4186739e-002 
 3.7797639e-001  2.6855219e-002  0.0000000e+000  0.0000000e+000  0.0000000e+000  1.0224972e-002  1.0224972e-002  1.0224972e-002 
 3.8416201e-001  2.8386306e-002  0.0000000e+000  0.0000000e+000  0.0000000e+000  5.7083154e-003  5.7083154e-003  5.7083154e-003 
 3.9045691e-001  2.9384755e-002  0.0000000e+000  0.0000000e+000  0.0000000e+000  9.2004205e-004  9.2004205e-004  9.2004205e-004 
 3.9681050e-001  2.9877570e-002  0.0000000e+000  0.0000000e+000  0.0000000e+000 -3.3900640e-003 -3.3900640e-003 -3.3900640e-003 
 4.0318170e-001  2.9877875e-002  0.0000000e+000  0.0000000e+000  0.0000000e+000 -6.3278759e-003 -6.3278759e-003 -6.3278759e-003 
 4.0953529e-001  2.9385680e-002  0.0000000e+000  0.0000000e+000  0.0000000e+000 -7.4189883e-003 -7.4189883e-003 -7.4189883e-003 
 4.1583216e-001  2.8387405e-002  0.0000000e+000  0.0000000e+000  0.0000000e+000 -6.8765604e-003 -6.8765604e-003 -6.8765604e-003 
 4.2201966e-001  2.6856385e-002  0.0000000e+000  0.0000000e+000  0.0000000e+000 -5.4213684e-003 -5.4213684e-003 -5.4213684e-003 
 4.2802945e-001  2.4750426e-002  0.0000000e+000  0.0000000e+000  0.0000000e+000 -3.9119204e-003 -3.9119204e-003 -3.9119204e-003 
 4.3377066e-001  2.2005875e-002  0.0000000e+000  0.0000000e+000  0.0000000e+000 -2.9059292e-003 -2.9059292e-003 -2.9059292e-003 
 4.3909878e-001  1.8537324e-002  0.0000000e+000  0.0000000e+000  0.0000000e+000 -2.4353289e-003 -2.4353289e-003 -2.4353289e-003 
 4.4377166e-001  1.4249785e-002  0.0000000e+000  0.0000000e+000  0.0000000e+000 -2.2575427e-003 -2.2575427e-003 -2.2575427e-003 
 4.4741020e-001  9.0879519e-003  0.0000000e+000  0.0000000e+000  0.0000000e+000 -2.2020927e-003 -2.2020927e-003 -2.2020927e-003 
 4.4945699e-001  3.1432575e-003  0.0000000e+000  0.0000000e+000  0.0000000e+000 -2.1628200e-003 -2.1628200e-003 -2.1628200e-003 
 4.5300001e-001  0.0000000e+000  0.0000000e+000  0.0000000e+000  0.0000000e+000 -2.1995204e-003 -2.1995204e-003 -2.1995204e-003 
 4.5899999e-001  0.0000000e+000  0.0000000e+000  0.0000000e+000  0.0000000e+000 -2.1953310e-003 -2.1953310e-003 -2.1953310e-003 
 4.6500000e-001  0.0000000e+000  0.0000000e+000  0.0000000e+000  0.0000000e+000 -2.1952954e-003 -2.1952954e-003 -2.1952954e-003 
 4.7100002e-001  0.0000000e+000  0.0000000e+000  0.0000000e+000  0.0000000e+000 -2.1851715e-003 -2.1851715e-003 -2.1851715e-003 
 4.7700000e-001  0.0000000e+000  0.0000000e+000  0.0000000e+000  0.0000000e+000 -2.1704440e-003 -2.1704440e-003 -2.1704440e-003 
 4.8299998e-001  0.0000000e+000  0.0000000e+000  0.0000000e+000  0.0000000e+000 -2.1471174e-003 -2.1471174e-003 -2.1471174e-003 
 4.8900002e-001  0.0000000e+000  0.0000000e+000  0.0000000e+000  0.0000000e+000 -2.1160734e-003 -2.1160734e-003 -2.1160734e-003 
 4.9500000e-001  0.0000000e+000  0.0000000e+000  0.0000000e+000  0.0000000e+000 -2.0755962e-003 -2.0755962e-003 -2.0755962e-003 
 5.0099999e-001  0.0000000e+000  0.0000000e+000  0.0000000e+000  0.0000000e+000 -2.0249437e-003 -2.0249437e-003 -2.0249437e-003 
 5.0699997e-001  0.0000000e+000  0.0000000e+000  0.0000000e+000  0.0000000e+000 -1.9621740e-003 -1.9621740e-003 -1.9621740e-003 
 5.1300001e-001  0.0000000e+000  0.0000000e+000  0.0000000e+000  0.0000000e+000 -1.8847358e-003 -1.8847358e-003 -1.8847358e-003 
 5.1899999e-001  0.0000000e+000  0.0000000e+000  0.0000000e+000  0.0000000e+000 -1.7881716e-003 -1.7881716e-003 -1.7881716e-003 
 5.2499998e-001  0.0000000e+000  0.0000000e+000  0.0000000e+000  0.0000000e+000 -1.6657831e-003 -1.6657831e-003 -1.6657831e-003 
 5.3100002e-001  0.0000000e+000  0.0000000e+000  0.0000000e+000  0.0000000e+000 -1.5079844e-003 -1.5079844e-003 -1.5079844e-003 
 5.3700000e-001  0.0000000e+000  0.0000000e+000  0.0000000e+000  0.0000000e+000 -1.3041408e-003 -1.3041408e-003 -1.3041408e-003 
 5.4300010e-001  0.0000000e+000  0.0000000e+000  0.0000000e+000  0.0000000e+000 -1.0466155e-003 -1.0466155e-003 -1.0466155e-003 
 5.4900002e-001  0.0000000e+000  0.0000000e+000  0.0000000e+000  0.0000000e+000 -7.4081874e-004 -7.4081874e-004 -7.4081874e-004 
 5.5500001e-001  0.0000000e+000  0.0000000e+000  0.0000000e+000  0.0000000e+000 -4.0913315e-004 -4.0913315e-004 -4.0913315e-004 
 5.6100011e-001  0.0000000e+000  0.0000000e+000  0.0000000e+000  0.0000000e+000 -9.7535602e-005 -9.7535602e-005 -9.7535602e-005 
 5.6700015e-001  0.0000000e+000  0.0000000e+000  0.0000000e+000  0.0000000e+000  1.5397422e-004  1.5397422e-004  1.5397422e-004 
 5.7300007e-001  0.0000000e+000  0.0000000e+000  0.0000000e+000  0.0000000e+000  3.0902782e-004  3.0902782e-004  3.0902782e-004 
 5.7900000e-001  0.0000000e+000  0.0000000e+000  0.0000000e+000  0.0000000e+000  3.6308402e-004  3.6308402e-004  3.6308402e-004 
 5.8500004e-001  0.0000000e+000  0.0000000e+000  0.0000000e+000  0.0000000e+000  3.5295924e-004  3.5295924e-004  3.5295924e-004 
 5.9100008e-001  0.0000000e+000  0.0000000e+000  0.0000000e+000  0.0000000e+000  2.2047214e-004  2.2047214e-004  2.2047214e-004 
 5.9700000e-001  0.0000000e+000  0.0000000e+000  0.0000000e+000  0.0000000e+000  1.9456849e-004  1.9456849e-004  1.9456849e-004 
 6.0000002e-001  0.0000000e+000  0.0000000e+000  0.0000000e+000  0.0000000e+000  1.8161647e-004  1.8161647e-004  1.8161647e-004 
 0.0000000e+000  1.7459640e-004  3.9999999e-002  0.0000000e+000  3.9999999e-002  4.4767823e-002  4.4767823e-002  4.5567822e-002 
 6.5484276e-004  1.7608533e-004  1.7379725e-002  4.5798379e-003  1.7973028e-002  4.3808877e-002  4.3808877e-002  4.3970391e-002 
 1.9743603e-003  1.7827385e-004  9.8200310e-003  6.6483492e-004  9.8425103e-003  4.1876592e-002  4.1876592e-002  4.1925028e-002 
 3.3136627e-003  1.7938580e-004  6.0548880e-003  5.5114782e-005  6.0551390e-003  4.1717980e-002  4.1717980e-002  4.1736312e-002 
 4.6730400e-003  1.8006055e-004  4.7597112e-003  3.1778931e-005  4.7598174e-003  4.1597739e-002  4.1597739e-002  4.1609067e-002 
 6.0528098e-003  1.8049541e-004  3.9628344e-003  1.9347868e-005  3.9628814e-003  4.1520640e-002  4.1520640e-002  4.1528493e-002 
 7.4532717e-003  1.8078320e-004  3.4226796e-003  1.2325060e-005  3.4227017e-003  4.1469485e-002  4.1469485e-002  4.1475341e-002 
 8.8747330e-003  1.8097670e-004  3.0407510e-003  8.7704275e-006  3.0407635e-003  4.1429788e-002  4.1429788e-002  4.1434411e-002 
 1.0317522e-002  1.8110865e-004  2.7538410e-003  6.4404344e-006  2.7538484e-003  4.1397981e-002  4.1397981e-002  4.1401774e-002 
 1.1781952e-002  1.8120033e-004  2.5316486e-003  4.9026144e-006  2.5316533e-003  4.1371170e-002  4.1371170e-002  4.1374374e-002 
 1.3268342e-002  1.8126570e-004  2.3549765e-003  3.8238695e-006  2.3549795e-003  4.1347709e-002  4.1347709e-002  4.1350480e-002 
 1.4777030e-002  1.8131401e-004  2.2115617e-003  3.0378831e-006  2.2115638e-003  4.1326597e-002  4.1326597e-002  4.1329041e-002 
 1.6308349e-002  1.8135129e-004  2.0932390e-003  2.4549311e-006  2.0932404e-003  4.1307159e-002  4.1307159e-002  4.1309349e-002 
 1.7862640e-002  1.8138155e-004  1.9942818e-003  2.0332304e-006  1.9942827e-003  4.1288920e-002  4.1288920e-002  4.1290909e-002 
 1.9440245e-002  1.8140727e-004  1.9105868e-003  1.6792195e-006  1.9105875e-003  4.1271556e-002  4.1271556e-002  4.1273382e-002 
 2.1041505e-002  1.8143008e-004  1.8390762e-003  1.4022024e-006  1.8390768e-003  4.1254826e-002  4.1254826e-002  4.1256517e-002 
 2.2666791e-002  1.8145097e-004  1.7774361e-003  1.1928399e-006  1.7774365e-003  4.1238561e-002  4.1238561e-002  4.1240141e-002 
 2.4316452e-002  1.8147058e-004  1.7238638e-003  1.0426112e-006  1.7238641e-003  4.1222636e-002  4.1222636e-002  4.1224122e-002 
 2.5990859e-002  1.8148927e-004  1.6769770e-003  8.8679667e-007  1.6769773e-003  4.1206952e-002  4.1206952e-002  4.1208357e-002 
 2.7690390e-002  1.8150732e-004  1.6356572e-003  7.7188645e-007  1.6356574e-003  4.1191444e-002  4.1191444e-002  4.1192781e-002 
 2.9415412e-002  1.8152483e-004  1.5990025e-003  6.7785015e-007  1.5990026e-003  4.1176051e-002  4.1176051e-002  4.1177329e-002 
 3.1166319e-002  1.8154185e-004  1.5662470e-003  5.8125380e-007  1.5662471e-003  4.1160736e-002  4.1160736e-002  4.1161962e-002 
 3.2943480e-002  1.8155845e-004  1.5368154e-003  5.2581584e-007  1.5368155e-003  4.1145474e-002  4.1145474e-002  4.1146655e-002 
 3.4747291e-002  1.8157469e-004  1.5102155e-003  4.8507690e-007  1.5102156e-003  4.1130230e-002  4.1130230e-002  4.1131370e-002 
 3.6578167e-002  1.8159060e-004  1.4860249e-003  4.2903827e-007  1.4860251e-003  4.1115005e-002  4.1115005e-002  4.1116107e-002 
 3.8436502e-002  1.8160613e-004  1.4639279e-003  3.8401495e-007  1.4639279e-003  4.1099776e-002  4.1099776e-002  4.1100848e-002 
 4.0322714e-002  1.8162129e-004  1.4436266e-003  3.5260504e-007  1.4436266e-003  4.1084543e-002  4.1084543e-002  4.1085586e-002 
 4.2237226e-002  1.8163613e-004  1.4248709e-003  3.2251813e-007  1.4248709e-003  4.1069292e-002  4.1069292e-002  4.1070305e-002 
 4.4180442e-002  1.8165063e-004  1.4074765e-003  2.9564117e-007  1.4074765e-003  4.1054022e-002  4.1054022e-002  4.1055012e-002 
 4.6152815e-002  1.8166483e-004  1.3912837e-003  2.6960811e-007  1.3912837e-003  4.1038737e-002  4.1038737e-002  4.1039705e-002 
 4.8154771e-002  1.8167870e-004  1.3761446e-003  2.5865398e-007  1.3761446e-003  4.1023418e-002  4.1023418e-002  4.1024365e-002 
 5.0186753e-002  1.8169224e-004  1.3619370e-003  2.4095164e-007  1.3619370e-003  4.1008078e-002  4.1008078e-002  4.1009005e-002 
 5.2249216e-002  1.8170549e-004  1.3485596e-003  2.2395400e-007  1.3485596e-003  4.0992707e-002  4.0992707e-002  4.0993616e-002 
 5.4342620e-002  1.8171841e-004  1.3359138e-003  2.0581845e-007  1.3359138e-003  4.0977314e-002  4.0977314e-002  4.0978208e-002 
 5.6467429e-002  1.8173104e-004  1.3239493e-003  1.7878429e-007  1.3239493e-003  4.0961888e-002  4.0961888e-002  4.0962763e-002 
 5.8624104e-002  1.8174338e-004  1.3126015e-003  1.8486290e-007  1.3126015e-003  4.0946431e-002  4.0946431e-002  4.0947292e-002 
 6.0813121e-002  1.8175540e-004  1.3017942e-003  1.6814175e-007  1.3017942e-003  4.0930945e-002  4.0930945e-002  4.0931791e-002 
 6.3034996e-002  1.8176716e-004  1.2914941e-003  1.6541929e-007  1.2914941e-003  4.0915426e-002  4.0915426e-002  4.0916260e-002 
 6.5290198e-002  1.8177863e-004  1.2816691e-003  1.5126554e-007  1.2816691e-003  4.0899869e-002  4.0899869e-002  4.0900689e-002 
 6.7579202e-002  1.8178983e-004  1.2722653e-003  1.1445970e-007  1.2722653e-003  4.0884286e-002  4.0884286e-002  4.0885095e-002 
 6.9902539e-002  1.8180071e-004  1.2632475e-003  1.0982278e-007  1.2632475e-003  4.0868655e-002  4.0868655e-002  4.0869452e-002 
 7.2260737e-002  1.8181135e-004  1.2545789e-003  1.1650262e-007  1.2545789e-003  4.0852986e-002  4.0852986e-002  4.0853772e-002 
 7.4654311e-002  1.8182176e-004  1.2462519e-003  1.1653199e-007  1.2462519e-003  4.0837280e-002  4.0837280e-002  4.0838055e-002 
 7.7083781e-002  1.8183187e-004  1.2382210e-003  1.1388815e-007  1.2382210e-003  4.0821537e-002  4.0821537e-002  4.0822305e-002 
 7.9549700e-002  1.8184172e-004  1.2304720e-003  1.1039383e-007  1.2304720e-003  4.0805750e-002  4.0805750e-002  4.0806506e-002 
 8.2052611e-002  1.8185136e-004  1.2229761e-003  1.1292182e-007  1.2229761e-003  4.0789925e-002  4.0789925e-002  4.0790673e-002 
 8.4593065e-002  1.8186073e-004  1.2157183e-003  1.1220801e-007  1.2157183e-003  4.0774055e-002  4.0774055e-002  4.0774792e-002 
 8.7171629e-002  1.8186988e-004  1.2086509e-003  9.6463232e-008  1.2086509e-003  4.0758144e-002  4.0758144e-002  4.0758874e-002 
 8.9788884e-002  1.8187880e-004  1.2017478e-003  9.7792409e-008  1.2017478e-003  4.0742192e-002  4.0742192e-002  4.0742915e-002 
 9.2445388e-002  1.8188747e-004  1.1949897e-003  9.7692286e-008  1.1949897e-003  4.0726203e-002  4.0726203e-002  4.0726919e-002 
 9.5141731e-002  1.8189593e-004  1.1883368e-003  9.5593919e-008  1.1883368e-003  4.0710181e-002  4.0710181e-002  4.0710889e-002 
 9.7878523e-002  1.8190415e-004  1.1817765e-003  8.6004185e-008  1.1817765e-003  4.0694129e-002  4.0694129e-002  4.0694825e-002 
 1.0065638e-001  1.8191218e-004  1.1752531e-003  8.7332147e-008  1.1752531e-003  4.0678050e-002  4.0678050e-002  4.0678740e-002 
 1.0347590e-001  1.8192001e-004  1.1687003e-003  9.1402278e-008  1.1687003e-003  4.0661961e-002  4.0661961e-002  4.0662643e-002 
 1.0633770e-001  1.8192761e-004  1.1620788e-003  9.2742667e-008  1.1620788e-003  4.0645868e-002  4.0645868e-002  4.0646542e-002 
 1.0924245e-001  1.8193500e-004  1.1553465e-003  8.9947115e-008  1.1553465e-003  4.0629789e-002  4.0629789e-002  4.0630456e-002 
 1.1219075e-001  1.8194222e-004  1.1483985e-003  9.2758825e-008  1.1483985e-003  4.0613737e-002  4.0613737e-002  4.0614396e-002 
 1.1518325e-001  1.8194925e-004  1.1411752e-003  1.0514702e-007  1.1411752e-003  4.0597741e-002  4.0597741e-002  4.0598392e-002 
 1.1822070e-001  1.8195607e-004  1.1335489e-003  1.0015444e-007  1.1335489e-003  4.0581815e-002  4.0581815e-002  4.0582456e-002 
 1.2130370e-001  1.8196272e-004  1.1253860e-003  1.0649536e-007  1.1253860e-003  4.0566020e-002  4.0566020e-002  4.0566653e-002 
 1.2443290e-001  1.8196920e-004  1.1165375e-003  1.1111019e-007  1.1165375e-003  4.0550388e-002  4.0550388e-002  4.0551011e-002 
 1.2760907e-001  1.8197553e-004  1.1068392e-003  1.3145545e-007  1.1068392e-003  4.0534977e-002  4.0534977e-002  4.0535588e-002 
 1.3083293e-001  1.8198168e-004  1.0960352e-003  1.3671450e-007  1.0960352e-003  4.0519852e-002  4.0519852e-002  4.0520452e-002 
 1.3410510e-001  1.8198768e-004  1.0838512e-003  1.4246704e-007  1.0838512e-003  4.0505107e-002  4.0505107e-002  4.0505696e-002 
 1.3742632e-001  1.8199360e-004  1.0699605e-003  1.8436492e-007  1.0699605e-003  4.0490855e-002  4.0490855e-002  4.0491428e-002 
 1.4079738e-001  1.8199952e-004  1.0539711e-003  1.9825129e-007  1.0539711e-003  4.0477213e-002  4.0477213e-002  4.0477768e-002 
 1.4421900e-001  1.8200565e-004  1.0353510e-003  2.2502877e-007  1.0353510e-003  4.0464345e-002  4.0464345e-002  4.0464882e-002 
 1.4769195e-001  1.8201245e-004  1.0135544e-003  2.5369189e-007  1.0135544e-003  4.0452454e-002  4.0452454e-002  4.0452968e-002 
 1.5121700e-001  1.8202107e-004  9.8783860e-004  3.1085301e-007  9.8783860e-004  4.0441755e-002  4.0441755e-002  4.0442243e-002 
 1.5479493e-001  1.8203410e-004  9.5737877e-004  3.6804474e-007  9.5737883e-004  4.0432557e-002  4.0432557e-002  4.0433016e-002 
 1.5842649e-001  1.8205738e-004  9.2120440e-004  4.2094399e-007  9.2120451e-004  4.0425159e-002  4.0425159e-002  4.0425584e-002 
 1.6211253e-001  1.8210425e-004  8.7820884e-004  4.9390604e-007  8.7820896e-004  4.0419962e-002  4.0419962e-002  4.0420350e-002 
 1.6585380e-001  1.8220511e-004  8.2718360e-004  5.7603535e-007  8.2718377e-004  4.0417377e-002  4.0417377e-002  4.0417720e-002 
 1.6965108e-001  1.8242958e-004  7.6693739e-004  6.7191655e-007  7.6693768e-004  4.0417891e-002  4.0417891e-002  4.0418185e-002 